/*--------------------------------*- C++ -*----------------------------------*\
  =========                 |
  \\      /  F ield         | OpenFOAM: The Open Source CFD Toolbox
   \\    /   O peration     | Website:  https://openfoam.org
    \\  /    A nd           | Version:  11
     \\/     M anipulation  |
\*---------------------------------------------------------------------------*/
FoamFile
{
    format      ascii;
    class       volScalarField;
    location    "750";
    object      alphat;
}
// * * * * * * * * * * * * * * * * * * * * * * * * * * * * * * * * * * * * * //

dimensions      [1 -1 -1 0 0 0 0];

internalField   nonuniform List<scalar> 
78750
(
1.10902e-08
2.14526e-06
2.42421e-05
2.63912e-05
2.69716e-05
2.82358e-05
2.85833e-05
2.86733e-05
2.88942e-05
2.9243e-05
2.97977e-05
3.03461e-05
3.09666e-05
3.17136e-05
3.24613e-05
3.32797e-05
3.38559e-05
3.58517e-05
3.69553e-05
3.65018e-05
3.55425e-05
3.70817e-05
4.01526e-05
3.99411e-05
4.04403e-05
4.08564e-05
4.07296e-05
3.99858e-05
3.8824e-05
3.71291e-05
3.5789e-05
3.56199e-05
3.11111e-05
6.20359e-06
4.21786e-08
3.43021e-09
8.79636e-07
1.16162e-05
1.14661e-05
1.44442e-05
2.02511e-05
2.79251e-05
3.45118e-05
3.89368e-05
4.15026e-05
4.46835e-05
4.74157e-05
4.87947e-05
5.15942e-05
5.38051e-05
5.61548e-05
5.85766e-05
5.6567e-05
6.28716e-05
7.56116e-05
7.61719e-05
7.2645e-05
6.94358e-05
6.58343e-05
6.4312e-05
6.18164e-05
4.43794e-05
4.35349e-05
4.72593e-05
3.7547e-05
3.1104e-05
2.80743e-05
2.45773e-05
3.9822e-06
2.18017e-08
2.68645e-09
7.17251e-07
7.24199e-06
1.18994e-05
2.2761e-05
4.04041e-05
5.47706e-05
6.37291e-05
6.95993e-05
7.29776e-05
7.53749e-05
7.70099e-05
7.85556e-05
7.94402e-05
8.00084e-05
8.02325e-05
7.9875e-05
7.72724e-05
6.82725e-05
6.48291e-05
6.8625e-05
6.87652e-05
6.49112e-05
6.06226e-05
5.72611e-05
4.84248e-05
3.82004e-05
4.22228e-05
4.16093e-05
2.81815e-05
2.25042e-05
2.00052e-05
1.81647e-05
2.25528e-06
1.02417e-08
3.66784e-09
9.60644e-07
9.09189e-06
2.18959e-05
4.28282e-05
6.06062e-05
7.17086e-05
7.91683e-05
8.39556e-05
8.64817e-05
8.75708e-05
8.74005e-05
8.634e-05
8.44742e-05
8.192e-05
7.88696e-05
7.55761e-05
7.23077e-05
6.86552e-05
6.23404e-05
5.60916e-05
5.19607e-05
4.831e-05
4.51351e-05
4.19079e-05
3.56403e-05
3.74214e-05
3.72049e-05
2.80448e-05
2.27771e-05
1.78864e-05
1.48047e-05
1.31858e-05
1.44852e-06
5.98237e-09
5.33158e-09
1.36439e-06
9.76888e-06
2.55625e-05
4.84027e-05
6.67176e-05
7.67616e-05
8.21105e-05
8.48261e-05
8.6107e-05
8.58708e-05
8.45152e-05
8.23311e-05
7.931e-05
7.5687e-05
7.16431e-05
6.73973e-05
6.294e-05
5.8156e-05
5.45927e-05
5.23351e-05
4.97111e-05
4.68347e-05
4.44179e-05
4.13557e-05
3.49876e-05
3.48891e-05
3.74116e-05
2.79367e-05
1.94984e-05
1.46734e-05
1.20219e-05
1.06669e-05
1.13933e-06
4.63767e-09
6.68497e-09
1.6914e-06
1.24121e-05
3.40105e-05
6.10057e-05
7.77303e-05
8.63281e-05
9.07946e-05
9.24566e-05
9.23033e-05
9.07338e-05
8.81721e-05
8.48106e-05
8.08803e-05
7.65544e-05
7.19921e-05
6.73587e-05
6.26404e-05
5.75182e-05
5.26487e-05
4.9264e-05
4.68491e-05
4.48064e-05
4.313e-05
3.93517e-05
3.36309e-05
3.43041e-05
3.43559e-05
2.52708e-05
1.80848e-05
1.30857e-05
1.0411e-05
1.0771e-05
1.01478e-06
3.97366e-09
8.09982e-09
2.03069e-06
1.32418e-05
3.60105e-05
6.35462e-05
7.94033e-05
8.67102e-05
8.99532e-05
9.0527e-05
8.95251e-05
8.73246e-05
8.42774e-05
8.045e-05
7.60734e-05
7.1398e-05
6.66429e-05
6.18924e-05
5.75463e-05
5.42797e-05
5.17594e-05
4.92983e-05
4.67472e-05
4.44177e-05
4.26459e-05
3.97625e-05
3.54869e-05
3.19885e-05
3.28911e-05
2.66899e-05
1.68436e-05
1.17407e-05
9.43165e-06
1.034e-05
9.74666e-07
3.7684e-09
8.92647e-09
2.22388e-06
1.4733e-05
4.04441e-05
6.88753e-05
8.39988e-05
9.08193e-05
9.34983e-05
9.34321e-05
9.17909e-05
8.91001e-05
8.56544e-05
8.14106e-05
7.66625e-05
7.16818e-05
6.67053e-05
6.18304e-05
5.72096e-05
5.32411e-05
5.00106e-05
4.70539e-05
4.46293e-05
4.27642e-05
4.07717e-05
3.76304e-05
3.40029e-05
3.54892e-05
3.34325e-05
2.39471e-05
1.62027e-05
1.08534e-05
8.79101e-06
1.05864e-05
9.49889e-07
3.5974e-09
1.02853e-08
2.54106e-06
1.53095e-05
4.18987e-05
7.04185e-05
8.46496e-05
9.07112e-05
9.27836e-05
9.22717e-05
9.02249e-05
8.68324e-05
8.25758e-05
7.78337e-05
7.2876e-05
6.79405e-05
6.32223e-05
5.8965e-05
5.53956e-05
5.23082e-05
4.96359e-05
4.74543e-05
4.56508e-05
4.41308e-05
4.21078e-05
3.88837e-05
3.51032e-05
3.56976e-05
3.26336e-05
2.31523e-05
1.53853e-05
1.02182e-05
8.1926e-06
8.90046e-06
8.85806e-07
3.43935e-09
1.09614e-08
2.69535e-06
1.61852e-05
4.42548e-05
7.30463e-05
8.69193e-05
9.2661e-05
9.43738e-05
9.35394e-05
9.107e-05
8.74571e-05
8.31832e-05
7.8322e-05
7.31649e-05
6.80697e-05
6.327e-05
5.89584e-05
5.51046e-05
5.15291e-05
4.83135e-05
4.56988e-05
4.37651e-05
4.23389e-05
4.06132e-05
3.78757e-05
3.49436e-05
3.60392e-05
3.24935e-05
2.24933e-05
1.49588e-05
1.01545e-05
8.38834e-06
9.44681e-06
8.68139e-07
3.41082e-09
1.24182e-08
3.02691e-06
1.67523e-05
4.5546e-05
7.41281e-05
8.72988e-05
9.25518e-05
9.38818e-05
9.2858e-05
9.02271e-05
8.63576e-05
8.16494e-05
7.65362e-05
7.13916e-05
6.63138e-05
6.14949e-05
5.71141e-05
5.33523e-05
5.03276e-05
4.80391e-05
4.61141e-05
4.44547e-05
4.31435e-05
4.13305e-05
3.84831e-05
3.57032e-05
3.68405e-05
3.27982e-05
2.28149e-05
1.52191e-05
1.02098e-05
8.44162e-06
1.06495e-05
9.28905e-07
3.5726e-09
1.30968e-08
3.17787e-06
1.74323e-05
4.71612e-05
7.57808e-05
8.87463e-05
9.3794e-05
9.48496e-05
9.35177e-05
9.06353e-05
8.6711e-05
8.21972e-05
7.73515e-05
7.22174e-05
6.7029e-05
6.20901e-05
5.76137e-05
5.37564e-05
5.04258e-05
4.73713e-05
4.48999e-05
4.32254e-05
4.18445e-05
3.9586e-05
3.72273e-05
3.71047e-05
3.90332e-05
3.1955e-05
2.14344e-05
1.43718e-05
9.91726e-06
8.48343e-06
1.04809e-05
9.01785e-07
3.47227e-09
1.46556e-08
3.52448e-06
1.81279e-05
4.86588e-05
7.68563e-05
8.91531e-05
9.38119e-05
9.4621e-05
9.31672e-05
9.02697e-05
8.6388e-05
8.17155e-05
7.65093e-05
7.12864e-05
6.62682e-05
6.13992e-05
5.67744e-05
5.26013e-05
4.90385e-05
4.61902e-05
4.4125e-05
4.28125e-05
4.15366e-05
3.91725e-05
3.68709e-05
3.88164e-05
3.72748e-05
2.88762e-05
2.08348e-05
1.39281e-05
9.76872e-06
8.71101e-06
1.18692e-05
8.98465e-07
3.46866e-09
1.53107e-08
3.66674e-06
1.87264e-05
4.99465e-05
7.80243e-05
9.01378e-05
9.46292e-05
9.52416e-05
9.35921e-05
9.05308e-05
8.65753e-05
8.20791e-05
7.72783e-05
7.22678e-05
6.71997e-05
6.22249e-05
5.74694e-05
5.31527e-05
4.94425e-05
4.6285e-05
4.36057e-05
4.13795e-05
3.97413e-05
3.7876e-05
3.61917e-05
3.82302e-05
3.62603e-05
2.82853e-05
2.09979e-05
1.43591e-05
1.00625e-05
8.90086e-06
1.24492e-05
9.20198e-07
3.57245e-09
1.68581e-08
4.0028e-06
1.94943e-05
5.15068e-05
7.90574e-05
9.06024e-05
9.48314e-05
9.53517e-05
9.37274e-05
9.0754e-05
8.68907e-05
8.24411e-05
7.765e-05
7.27187e-05
6.77625e-05
6.27978e-05
5.78777e-05
5.32465e-05
4.90938e-05
4.55452e-05
4.26697e-05
4.04959e-05
3.89168e-05
3.74452e-05
3.62831e-05
3.82312e-05
3.57765e-05
2.77084e-05
2.06058e-05
1.43481e-05
1.01867e-05
9.06768e-06
1.30055e-05
9.36102e-07
3.55965e-09
1.7431e-08
4.12523e-06
1.99867e-05
5.24932e-05
7.9894e-05
9.12952e-05
9.54137e-05
9.58409e-05
9.41566e-05
9.11743e-05
8.73561e-05
8.30217e-05
7.83878e-05
7.3621e-05
6.88309e-05
6.40839e-05
5.93986e-05
5.47868e-05
5.03484e-05
4.63301e-05
4.28227e-05
3.98203e-05
3.73828e-05
3.58475e-05
3.51394e-05
3.66107e-05
3.37776e-05
2.58009e-05
1.87562e-05
1.32416e-05
1.00061e-05
9.59066e-06
1.46617e-05
9.29432e-07
3.5313e-09
1.88563e-08
4.42932e-06
2.06819e-05
5.39182e-05
8.08891e-05
9.18508e-05
9.58159e-05
9.62678e-05
9.47188e-05
9.19231e-05
8.8288e-05
8.41022e-05
7.95066e-05
7.46681e-05
6.97237e-05
6.48016e-05
6.00161e-05
5.54282e-05
5.09602e-05
4.6512e-05
4.22247e-05
3.85316e-05
3.56967e-05
3.37996e-05
3.31976e-05
3.48323e-05
3.21291e-05
2.46492e-05
1.8084e-05
1.29443e-05
1.00337e-05
9.99822e-06
1.56668e-05
9.52506e-07
3.70671e-09
1.93302e-08
4.52812e-06
2.10613e-05
5.46171e-05
8.15402e-05
9.25456e-05
9.66151e-05
9.72074e-05
9.58145e-05
9.31813e-05
8.97e-05
8.56469e-05
8.11783e-05
7.64422e-05
7.15412e-05
6.65706e-05
6.16467e-05
5.68993e-05
5.23639e-05
4.79583e-05
4.35673e-05
3.91699e-05
3.51359e-05
3.25974e-05
3.23744e-05
3.46114e-05
3.15651e-05
2.45764e-05
1.88771e-05
1.36725e-05
1.02864e-05
9.83602e-06
1.51087e-05
1.00705e-06
3.99027e-09
2.05886e-08
4.79137e-06
2.17022e-05
5.56256e-05
8.22726e-05
9.32838e-05
9.75644e-05
9.84657e-05
9.74146e-05
9.51244e-05
9.19524e-05
8.81341e-05
8.3818e-05
7.91366e-05
7.42015e-05
6.91228e-05
6.40222e-05
5.90305e-05
5.42048e-05
4.95257e-05
4.49459e-05
4.04914e-05
3.63463e-05
3.29326e-05
3.07344e-05
3.17935e-05
2.96122e-05
2.35955e-05
1.86955e-05
1.40158e-05
1.06826e-05
1.02519e-05
1.63207e-05
1.03847e-06
3.99688e-09
2.08522e-08
4.84588e-06
2.19962e-05
5.5939e-05
8.26148e-05
9.38816e-05
9.8456e-05
9.96283e-05
9.88262e-05
9.67784e-05
9.38358e-05
9.02204e-05
8.60848e-05
8.15433e-05
7.66943e-05
7.1639e-05
6.64959e-05
6.13943e-05
5.63863e-05
5.14488e-05
4.65218e-05
4.16287e-05
3.69804e-05
3.27408e-05
2.93803e-05
2.84379e-05
2.55548e-05
2.05952e-05
1.65519e-05
1.32224e-05
1.11303e-05
1.16388e-05
1.92859e-05
1.05669e-06
4.05748e-09
2.17804e-08
5.0113e-06
2.22268e-05
5.57227e-05
8.26752e-05
9.44284e-05
9.92869e-05
0.000100751
0.000100253
9.85047e-05
9.58307e-05
9.24345e-05
8.84413e-05
8.39564e-05
7.90832e-05
7.39389e-05
6.86607e-05
6.33898e-05
5.8186e-05
5.30333e-05
4.78963e-05
4.27665e-05
3.76692e-05
3.24325e-05
2.79522e-05
2.60133e-05
2.29838e-05
1.86559e-05
1.54006e-05
1.27885e-05
1.13639e-05
1.24032e-05
1.97957e-05
1.09631e-06
4.29082e-09
2.21398e-08
5.07209e-06
2.24173e-05
5.60334e-05
8.29399e-05
9.4938e-05
0.000100229
0.000102113
0.00010197
0.000100518
9.80888e-05
9.48701e-05
9.09976e-05
8.65893e-05
8.17645e-05
7.66502e-05
7.1383e-05
6.60854e-05
6.07972e-05
5.55257e-05
5.03245e-05
4.51944e-05
3.98444e-05
3.34303e-05
2.74662e-05
2.52807e-05
2.2308e-05
1.80852e-05
1.52975e-05
1.27796e-05
1.11422e-05
1.19367e-05
1.93922e-05
1.15828e-06
4.60429e-09
2.28718e-08
5.20641e-06
2.24423e-05
5.51372e-05
8.272e-05
9.55238e-05
0.000101348
0.00010367
0.00010391
0.000102803
0.000100683
9.77078e-05
9.4008e-05
8.97081e-05
8.49401e-05
7.98423e-05
7.45679e-05
6.92641e-05
6.39938e-05
5.87579e-05
5.35986e-05
4.85187e-05
4.30733e-05
3.56116e-05
2.80363e-05
2.4807e-05
2.12081e-05
1.69417e-05
1.45141e-05
1.24049e-05
1.10107e-05
1.19984e-05
1.96581e-05
1.18555e-06
4.63449e-09
2.33021e-08
5.29486e-06
2.22054e-05
5.47538e-05
8.26956e-05
9.60127e-05
0.000102245
0.000104906
0.0001054
0.000104475
0.000102479
9.95796e-05
9.59211e-05
9.16627e-05
8.69556e-05
8.19061e-05
7.66725e-05
7.14395e-05
6.62876e-05
6.12751e-05
5.64496e-05
5.17054e-05
4.63961e-05
3.81199e-05
2.90933e-05
2.40322e-05
1.94035e-05
1.5261e-05
1.31147e-05
1.17867e-05
1.12836e-05
1.3147e-05
2.15512e-05
1.21037e-06
4.69211e-09
2.3988e-08
5.46553e-06
2.20186e-05
5.35467e-05
8.23436e-05
9.65352e-05
0.000103175
0.000106046
0.000106621
0.000105731
0.000103729
0.000100776
9.70266e-05
9.27119e-05
8.80035e-05
8.28636e-05
7.76054e-05
7.25202e-05
6.76763e-05
6.29913e-05
5.85943e-05
5.43578e-05
4.93021e-05
4.05528e-05
3.06784e-05
2.51118e-05
1.96092e-05
1.46556e-05
1.22511e-05
1.12361e-05
1.13468e-05
1.37846e-05
2.13493e-05
1.25776e-06
5.06127e-09
2.47953e-08
5.67027e-06
2.17314e-05
5.27177e-05
8.21435e-05
9.69886e-05
0.000103968
0.000107111
0.000107815
0.000106979
0.000104962
0.00010192
9.80093e-05
9.3566e-05
8.871e-05
8.3206e-05
7.74582e-05
7.28299e-05
6.89581e-05
6.54686e-05
6.18371e-05
5.79826e-05
5.3104e-05
4.40495e-05
3.3164e-05
2.73537e-05
2.15642e-05
1.55448e-05
1.2543e-05
1.13133e-05
1.11676e-05
1.30967e-05
2.03931e-05
1.3277e-06
5.5041e-09
2.68181e-08
6.07375e-06
2.20065e-05
5.27796e-05
8.23919e-05
9.76466e-05
0.000104996
0.000108419
0.000109191
0.000108258
0.000106007
0.000102616
9.8148e-05
9.23038e-05
8.58731e-05
8.08263e-05
7.76596e-05
7.46795e-05
7.18182e-05
6.89134e-05
6.57885e-05
6.22157e-05
5.72859e-05
4.78475e-05
3.58866e-05
2.91998e-05
2.37605e-05
1.65948e-05
1.26638e-05
1.11687e-05
1.07765e-05
1.27553e-05
2.07108e-05
1.37007e-06
5.50203e-09
2.93233e-08
6.56183e-06
2.23904e-05
5.34475e-05
8.29221e-05
9.77806e-05
0.000104996
0.000108453
0.000109149
0.000107999
0.000105259
0.000101132
9.58652e-05
9.01807e-05
8.48285e-05
8.03243e-05
7.70938e-05
7.52534e-05
7.42692e-05
7.31253e-05
7.10559e-05
6.76139e-05
6.18242e-05
5.17993e-05
3.92909e-05
3.11994e-05
2.41048e-05
1.63225e-05
1.21842e-05
1.08312e-05
1.09358e-05
1.35762e-05
2.19835e-05
1.39877e-06
5.51659e-09
3.21446e-08
7.10064e-06
2.29085e-05
5.43845e-05
8.35968e-05
9.78772e-05
0.000104691
0.00010779
0.000108059
0.000106449
0.000103161
9.83229e-05
9.22386e-05
8.60151e-05
8.01722e-05
7.57696e-05
7.36364e-05
7.39842e-05
7.60176e-05
7.81346e-05
7.81259e-05
7.42571e-05
6.63093e-05
5.50592e-05
4.28489e-05
3.42527e-05
2.44793e-05
1.6037e-05
1.19868e-05
1.06392e-05
1.1165e-05
1.46277e-05
2.1764e-05
1.43152e-06
5.67205e-09
3.42022e-08
7.33338e-06
2.36136e-05
5.60948e-05
8.47558e-05
9.82501e-05
0.0001046
0.000107136
0.000106919
0.000104709
0.000100324
9.4245e-05
8.81332e-05
8.15409e-05
7.54043e-05
7.12576e-05
7.00445e-05
7.20167e-05
7.66685e-05
8.21134e-05
8.43023e-05
8.01901e-05
7.21866e-05
6.16455e-05
4.95122e-05
4.00861e-05
2.77022e-05
1.74337e-05
1.24974e-05
1.07061e-05
1.12412e-05
1.46187e-05
2.15886e-05
1.48282e-06
6.05744e-09
3.63802e-08
7.58356e-06
2.4605e-05
5.82785e-05
8.60819e-05
9.85515e-05
0.000104078
0.000105705
0.000104879
0.000101249
9.63577e-05
9.10664e-05
8.40929e-05
7.67493e-05
7.09013e-05
6.78144e-05
6.82343e-05
7.22246e-05
7.90353e-05
8.62997e-05
8.88448e-05
8.39873e-05
7.63474e-05
6.70905e-05
5.59017e-05
4.72385e-05
3.34434e-05
2.04003e-05
1.38326e-05
1.13695e-05
1.1176e-05
1.35681e-05
2.20529e-05
1.5971e-06
6.43586e-09
3.7984e-08
7.8047e-06
2.55166e-05
6.00413e-05
8.68797e-05
9.83356e-05
0.000102967
0.000103625
0.000101548
9.85618e-05
9.43695e-05
8.76958e-05
7.9803e-05
7.2623e-05
6.73841e-05
6.5083e-05
6.64031e-05
7.17441e-05
8.06115e-05
9.00891e-05
9.3451e-05
8.84339e-05
8.14058e-05
7.28801e-05
6.07838e-05
4.92809e-05
3.44884e-05
2.21633e-05
1.50593e-05
1.1549e-05
1.10947e-05
1.46878e-05
2.27361e-05
1.64138e-06
6.55359e-09
3.93813e-08
8.01553e-06
2.63536e-05
6.17731e-05
8.75592e-05
9.79216e-05
0.000101506
0.000101543
9.95912e-05
9.60725e-05
9.05127e-05
8.39077e-05
7.68791e-05
7.00732e-05
6.48975e-05
6.23958e-05
6.34556e-05
6.88035e-05
7.80569e-05
8.84085e-05
9.27186e-05
8.85401e-05
8.24787e-05
7.47982e-05
6.28205e-05
4.83842e-05
3.28524e-05
2.13331e-05
1.49271e-05
1.20711e-05
1.22333e-05
1.67899e-05
2.16464e-05
1.65993e-06
6.6127e-09
3.9897e-08
8.09304e-06
2.66456e-05
6.23476e-05
8.74253e-05
9.69964e-05
0.000100082
9.97255e-05
9.72215e-05
9.30512e-05
8.7991e-05
8.20998e-05
7.55722e-05
6.88558e-05
6.28815e-05
5.93682e-05
5.95924e-05
6.39518e-05
7.22946e-05
8.21148e-05
8.69616e-05
8.67919e-05
8.40593e-05
7.66981e-05
6.54822e-05
4.96669e-05
3.359e-05
2.1922e-05
1.52495e-05
1.24822e-05
1.28395e-05
1.756e-05
2.16679e-05
1.77145e-06
7.05602e-09
4.01325e-08
8.12428e-06
2.67764e-05
6.23979e-05
8.68325e-05
9.58786e-05
9.8568e-05
9.80118e-05
9.57397e-05
9.21467e-05
8.74219e-05
8.16279e-05
7.51407e-05
6.84585e-05
6.22226e-05
5.75162e-05
5.59476e-05
5.90927e-05
6.69929e-05
7.73717e-05
8.46031e-05
8.66442e-05
8.48113e-05
7.75645e-05
6.76328e-05
5.25426e-05
3.67228e-05
2.47034e-05
1.68135e-05
1.31939e-05
1.33134e-05
1.79274e-05
2.29285e-05
1.90168e-06
7.71262e-09
4.01894e-08
8.1511e-06
2.68569e-05
6.23145e-05
8.65498e-05
9.55514e-05
9.8304e-05
9.78896e-05
9.56451e-05
9.2179e-05
8.75727e-05
8.20096e-05
7.55473e-05
6.85693e-05
6.19892e-05
5.6903e-05
5.43486e-05
5.53169e-05
6.13808e-05
7.18903e-05
8.07077e-05
8.53907e-05
8.5816e-05
7.94849e-05
6.92804e-05
5.36261e-05
3.80584e-05
2.65573e-05
1.86422e-05
1.43279e-05
1.38223e-05
1.87156e-05
2.28318e-05
2.00176e-06
8.04653e-09
4.05756e-08
8.18712e-06
2.69074e-05
6.18134e-05
8.61597e-05
9.54419e-05
9.8321e-05
9.79937e-05
9.59413e-05
9.25633e-05
8.82138e-05
8.2751e-05
7.6496e-05
6.96338e-05
6.26458e-05
5.64569e-05
5.24352e-05
5.20383e-05
5.57036e-05
6.38644e-05
7.36045e-05
8.07807e-05
8.40496e-05
8.08067e-05
6.85682e-05
5.19091e-05
3.72594e-05
2.62774e-05
1.90837e-05
1.5305e-05
1.5363e-05
2.14043e-05
2.22073e-05
2.07144e-06
8.33338e-09
4.07808e-08
8.21028e-06
2.67787e-05
6.06458e-05
8.47486e-05
9.4457e-05
9.76461e-05
9.76459e-05
9.57707e-05
9.24518e-05
8.80835e-05
8.31211e-05
7.75557e-05
7.12144e-05
6.42622e-05
5.73659e-05
5.17429e-05
4.88036e-05
4.99135e-05
5.53263e-05
6.31137e-05
7.13614e-05
7.70081e-05
7.61671e-05
6.61851e-05
5.10872e-05
3.692e-05
2.61175e-05
1.93208e-05
1.60961e-05
1.66557e-05
2.29152e-05
2.23403e-05
2.17084e-06
8.72878e-09
4.06162e-08
8.2053e-06
2.64256e-05
5.99698e-05
8.44042e-05
9.44365e-05
9.80645e-05
9.79514e-05
9.55866e-05
9.23646e-05
8.85399e-05
8.42823e-05
7.94728e-05
7.40819e-05
6.79705e-05
6.11481e-05
5.42347e-05
4.86235e-05
4.59324e-05
4.70643e-05
5.20226e-05
5.97078e-05
6.87018e-05
7.10844e-05
6.25652e-05
5.02792e-05
3.78718e-05
2.73244e-05
2.01843e-05
1.6748e-05
1.73188e-05
2.37255e-05
2.35953e-05
2.33043e-06
9.68615e-09
4.02613e-08
8.1729e-06
2.58673e-05
5.8793e-05
8.40218e-05
9.44131e-05
9.79551e-05
9.81142e-05
9.65462e-05
9.37696e-05
9.00464e-05
8.5562e-05
8.06231e-05
7.54826e-05
7.01699e-05
6.45121e-05
5.83649e-05
5.20825e-05
4.67712e-05
4.40774e-05
4.49102e-05
4.99352e-05
5.94351e-05
6.38098e-05
5.80202e-05
4.92492e-05
3.88287e-05
2.91482e-05
2.17746e-05
1.77103e-05
1.77463e-05
2.37363e-05
2.55688e-05
2.49675e-06
1.04855e-08
3.99311e-08
8.13257e-06
2.52734e-05
5.77458e-05
8.3033e-05
9.36621e-05
9.78466e-05
9.87699e-05
9.76185e-05
9.49857e-05
9.11964e-05
8.65718e-05
8.15445e-05
7.65224e-05
7.17367e-05
6.71039e-05
6.20996e-05
5.63787e-05
5.04995e-05
4.54961e-05
4.27695e-05
4.38152e-05
5.08267e-05
5.59958e-05
5.26029e-05
4.64446e-05
3.79482e-05
2.94268e-05
2.26564e-05
1.86204e-05
1.86496e-05
2.50552e-05
2.58547e-05
2.6367e-06
1.08917e-08
3.94532e-08
8.08844e-06
2.49188e-05
5.65513e-05
8.2237e-05
9.37944e-05
9.85103e-05
9.95926e-05
9.83806e-05
9.56481e-05
9.17655e-05
8.7007e-05
8.18069e-05
7.66647e-05
7.18348e-05
6.749e-05
6.35345e-05
5.93203e-05
5.4352e-05
4.89349e-05
4.41062e-05
4.1794e-05
4.53402e-05
4.88968e-05
4.67266e-05
4.24205e-05
3.54905e-05
2.83875e-05
2.26863e-05
1.95346e-05
2.03119e-05
2.76172e-05
2.5477e-05
2.78937e-06
1.14515e-08
3.94088e-08
8.05532e-06
2.44055e-05
5.57551e-05
8.25757e-05
9.46668e-05
9.94835e-05
0.00010046
9.9068e-05
9.61348e-05
9.20254e-05
8.69788e-05
8.14624e-05
7.60348e-05
7.17321e-05
6.81908e-05
6.48885e-05
6.1585e-05
5.74836e-05
5.21855e-05
4.6534e-05
4.24367e-05
4.3235e-05
4.42675e-05
4.17958e-05
3.84909e-05
3.28804e-05
2.69562e-05
2.24745e-05
2.03529e-05
2.21164e-05
3.00637e-05
2.5418e-05
2.90869e-06
1.20444e-08
4.00008e-08
8.0527e-06
2.44552e-05
5.60367e-05
8.26881e-05
9.46452e-05
9.94714e-05
0.000100484
9.9094e-05
9.60796e-05
9.17693e-05
8.63337e-05
8.03515e-05
7.48758e-05
7.01937e-05
6.68164e-05
6.47925e-05
6.30204e-05
6.05012e-05
5.6382e-05
5.06341e-05
4.54597e-05
4.48609e-05
4.3626e-05
3.97234e-05
3.66992e-05
3.19994e-05
2.66492e-05
2.25381e-05
2.08856e-05
2.30956e-05
3.12118e-05
2.68245e-05
3.11553e-06
1.33348e-08
4.05608e-08
8.06554e-06
2.46522e-05
5.63275e-05
8.26174e-05
9.44389e-05
9.92825e-05
0.000100321
9.88786e-05
9.57553e-05
9.13026e-05
8.55019e-05
7.91911e-05
7.33165e-05
6.84575e-05
6.53446e-05
6.38568e-05
6.33517e-05
6.25167e-05
5.99935e-05
5.49532e-05
4.97086e-05
4.88297e-05
4.60795e-05
4.03184e-05
3.65302e-05
3.23669e-05
2.76311e-05
2.3413e-05
2.12594e-05
2.2839e-05
3.036e-05
2.91322e-05
3.27981e-06
1.4105e-08
4.11718e-08
8.10853e-06
2.48966e-05
5.68359e-05
8.29727e-05
9.46695e-05
9.94258e-05
0.000100346
9.86226e-05
9.50685e-05
9.01636e-05
8.45734e-05
7.82868e-05
7.1763e-05
6.65303e-05
6.33753e-05
6.2254e-05
6.25584e-05
6.32526e-05
6.2547e-05
5.90069e-05
5.4576e-05
5.33502e-05
4.93707e-05
4.25447e-05
3.77062e-05
3.28958e-05
2.78623e-05
2.35931e-05
2.14217e-05
2.31339e-05
3.14004e-05
2.8997e-05
3.5093e-06
1.47695e-08
4.16481e-08
8.14789e-06
2.5252e-05
5.75202e-05
8.30409e-05
9.42109e-05
9.85872e-05
9.91476e-05
9.76951e-05
9.46725e-05
8.97862e-05
8.3258e-05
7.60886e-05
6.96215e-05
6.46733e-05
6.16691e-05
6.07143e-05
6.14518e-05
6.29826e-05
6.37796e-05
6.18152e-05
5.83832e-05
5.62341e-05
5.11849e-05
4.39307e-05
3.79996e-05
3.25261e-05
2.7538e-05
2.36787e-05
2.2137e-05
2.4832e-05
3.43319e-05
2.7788e-05
3.6122e-06
1.51969e-08
4.17637e-08
8.16962e-06
2.55562e-05
5.81152e-05
8.28825e-05
9.36581e-05
9.79903e-05
9.86519e-05
9.68032e-05
9.2957e-05
8.76787e-05
8.13935e-05
7.47311e-05
6.83865e-05
6.32428e-05
5.99404e-05
5.86881e-05
5.92523e-05
6.09272e-05
6.24306e-05
6.18612e-05
5.988e-05
5.77421e-05
5.25832e-05
4.5169e-05
3.8238e-05
3.21515e-05
2.72978e-05
2.40845e-05
2.33106e-05
2.66957e-05
3.6197e-05
2.73473e-05
3.8117e-06
1.61058e-08
4.1778e-08
8.18765e-06
2.55741e-05
5.80393e-05
8.27559e-05
9.33533e-05
9.72024e-05
9.73183e-05
9.51319e-05
9.13938e-05
8.63273e-05
8.02773e-05
7.37551e-05
6.74367e-05
6.21952e-05
5.86628e-05
5.70908e-05
5.72935e-05
5.85604e-05
5.99471e-05
6.10673e-05
6.15073e-05
6.05711e-05
5.49931e-05
4.68173e-05
3.95604e-05
3.30799e-05
2.78715e-05
2.45644e-05
2.39406e-05
2.74581e-05
3.70914e-05
2.83994e-05
4.04543e-06
1.7362e-08
4.14818e-08
8.13722e-06
2.55211e-05
5.80939e-05
8.2507e-05
9.25036e-05
9.59362e-05
9.59427e-05
9.38821e-05
9.03715e-05
8.56863e-05
7.98462e-05
7.33013e-05
6.69115e-05
6.14351e-05
5.75151e-05
5.55212e-05
5.54457e-05
5.68056e-05
5.86074e-05
6.017e-05
6.25969e-05
6.10166e-05
5.50756e-05
4.93285e-05
4.29597e-05
3.62529e-05
3.0136e-05
2.57752e-05
2.43988e-05
2.76613e-05
3.76052e-05
3.05342e-05
4.26454e-06
1.85637e-08
4.10615e-08
8.07641e-06
2.5479e-05
5.7958e-05
8.18304e-05
9.1662e-05
9.52464e-05
9.54387e-05
9.36208e-05
9.03146e-05
8.55625e-05
7.95975e-05
7.29623e-05
6.64531e-05
6.08939e-05
5.6886e-05
5.47216e-05
5.44184e-05
5.56234e-05
5.74313e-05
5.90391e-05
6.1577e-05
6.01648e-05
5.48361e-05
5.0177e-05
4.48299e-05
3.86296e-05
3.22118e-05
2.71513e-05
2.52734e-05
2.88335e-05
4.03696e-05
2.96698e-05
4.46567e-06
1.91838e-08
4.06655e-08
8.02371e-06
2.52716e-05
5.75157e-05
8.15791e-05
9.16149e-05
9.52368e-05
9.5382e-05
9.33716e-05
8.97924e-05
8.48934e-05
7.88991e-05
7.22719e-05
6.57487e-05
6.01588e-05
5.61328e-05
5.39604e-05
5.36617e-05
5.49748e-05
5.70036e-05
5.82168e-05
5.95925e-05
5.81041e-05
5.34e-05
4.89096e-05
4.39855e-05
3.85032e-05
3.28606e-05
2.84359e-05
2.73926e-05
3.26059e-05
4.4738e-05
2.91644e-05
4.61736e-06
1.99188e-08
4.02864e-08
7.96401e-06
2.51449e-05
5.73461e-05
8.12673e-05
9.11424e-05
9.46634e-05
9.48139e-05
9.2913e-05
8.95105e-05
8.47319e-05
7.87082e-05
7.18839e-05
6.50637e-05
5.91917e-05
5.49791e-05
5.27129e-05
5.23451e-05
5.35849e-05
5.56346e-05
5.69661e-05
5.77216e-05
5.61514e-05
5.1837e-05
4.70559e-05
4.20057e-05
3.71671e-05
3.28469e-05
2.99165e-05
3.03557e-05
3.72041e-05
4.81137e-05
2.78099e-05
4.73598e-06
2.04762e-08
3.96462e-08
7.87574e-06
2.48583e-05
5.65463e-05
8.04002e-05
9.044e-05
9.40744e-05
9.42781e-05
9.23488e-05
8.88613e-05
8.39817e-05
7.7877e-05
7.09594e-05
6.39691e-05
5.78729e-05
5.34785e-05
5.11284e-05
5.07464e-05
5.20256e-05
5.42417e-05
5.58339e-05
5.62783e-05
5.47169e-05
5.07703e-05
4.57286e-05
4.05214e-05
3.59795e-05
3.26417e-05
3.11857e-05
3.31365e-05
4.07869e-05
5.03736e-05
2.79888e-05
4.92998e-06
2.12917e-08
3.89896e-08
7.77925e-06
2.46558e-05
5.62764e-05
8.02066e-05
9.03153e-05
9.3963e-05
9.41351e-05
9.21511e-05
8.8605e-05
8.3668e-05
7.74992e-05
7.05086e-05
6.32906e-05
5.67852e-05
5.2015e-05
4.95502e-05
4.91065e-05
5.03213e-05
5.2718e-05
5.48627e-05
5.62204e-05
5.48893e-05
5.07237e-05
4.57943e-05
4.05755e-05
3.5978e-05
3.28653e-05
3.20483e-05
3.48106e-05
4.26195e-05
5.17682e-05
2.90311e-05
5.21577e-06
2.29879e-08
3.81565e-08
7.65975e-06
2.44354e-05
5.59157e-05
7.98852e-05
9.01035e-05
9.38431e-05
9.4098e-05
9.21938e-05
8.87455e-05
8.39168e-05
7.77481e-05
7.04813e-05
6.29832e-05
5.62965e-05
5.11714e-05
4.80361e-05
4.73109e-05
4.87663e-05
5.15348e-05
5.53846e-05
5.68177e-05
5.41513e-05
5.07586e-05
4.68014e-05
4.19689e-05
3.72205e-05
3.37546e-05
3.26829e-05
3.53422e-05
4.33656e-05
5.30076e-05
3.14263e-05
5.45332e-06
2.45495e-08
3.72531e-08
7.54157e-06
2.4213e-05
5.54071e-05
7.93268e-05
8.96916e-05
9.36158e-05
9.40649e-05
9.23638e-05
8.90996e-05
8.4372e-05
7.82235e-05
7.07967e-05
6.29187e-05
5.57621e-05
5.01948e-05
4.68977e-05
4.60159e-05
4.72263e-05
5.00252e-05
5.44171e-05
5.56106e-05
5.3253e-05
5.13285e-05
4.82994e-05
4.39354e-05
3.90246e-05
3.49826e-05
3.32622e-05
3.55492e-05
4.37445e-05
5.44403e-05
3.2446e-05
5.72316e-06
2.54525e-08
3.64806e-08
7.43564e-06
2.40847e-05
5.52353e-05
7.91698e-05
8.96913e-05
9.38336e-05
9.44818e-05
9.28895e-05
8.96551e-05
8.49261e-05
7.86811e-05
7.13517e-05
6.33894e-05
5.57101e-05
4.97493e-05
4.60744e-05
4.4763e-05
4.5723e-05
4.83628e-05
5.25981e-05
5.39951e-05
5.21035e-05
5.07351e-05
4.84248e-05
4.47444e-05
4.01575e-05
3.60397e-05
3.43017e-05
3.70569e-05
4.63861e-05
5.71085e-05
3.21823e-05
5.87333e-06
2.63646e-08
3.58632e-08
7.34139e-06
2.40172e-05
5.51323e-05
7.90209e-05
8.96816e-05
9.40288e-05
9.48631e-05
9.34277e-05
9.03272e-05
8.5708e-05
7.95811e-05
7.20188e-05
6.35471e-05
5.53921e-05
4.88182e-05
4.47554e-05
4.34215e-05
4.44283e-05
4.69903e-05
5.05437e-05
5.18222e-05
5.05645e-05
4.92554e-05
4.72493e-05
4.43072e-05
4.06097e-05
3.7329e-05
3.64327e-05
4.02857e-05
5.05493e-05
5.89902e-05
3.21494e-05
5.97477e-06
2.70046e-08
3.51513e-08
7.25031e-06
2.39634e-05
5.49098e-05
7.86853e-05
8.95568e-05
9.42e-05
9.53037e-05
9.40724e-05
9.10613e-05
8.64065e-05
8.00868e-05
7.22567e-05
6.34672e-05
5.47933e-05
4.78252e-05
4.35476e-05
4.21693e-05
4.32857e-05
4.59394e-05
4.88162e-05
4.98987e-05
4.90495e-05
4.75289e-05
4.55531e-05
4.32883e-05
4.09021e-05
3.9049e-05
3.93441e-05
4.40707e-05
5.40974e-05
6.05461e-05
3.18368e-05
6.08307e-06
2.75657e-08
3.45051e-08
7.17782e-06
2.39675e-05
5.48359e-05
7.84882e-05
8.94903e-05
9.43209e-05
9.5589e-05
9.44363e-05
9.14364e-05
8.6751e-05
8.03995e-05
7.25255e-05
6.35939e-05
5.46047e-05
4.69568e-05
4.21544e-05
4.06783e-05
4.20089e-05
4.49538e-05
4.77219e-05
4.88692e-05
4.82466e-05
4.64203e-05
4.43314e-05
4.25297e-05
4.11294e-05
4.05707e-05
4.20143e-05
4.71247e-05
5.63623e-05
6.17516e-05
3.22073e-05
6.26017e-06
2.8406e-08
3.36754e-08
7.0826e-06
2.38723e-05
5.45762e-05
7.81784e-05
8.93565e-05
9.43892e-05
9.58241e-05
9.47632e-05
9.17981e-05
8.71522e-05
8.09239e-05
7.32713e-05
6.44783e-05
5.53397e-05
4.7243e-05
4.14364e-05
3.89928e-05
4.00641e-05
4.35258e-05
4.69782e-05
4.86862e-05
4.82402e-05
4.61705e-05
4.37576e-05
4.18944e-05
4.09219e-05
4.11636e-05
4.35879e-05
4.96638e-05
5.89644e-05
6.30566e-05
3.28897e-05
6.46544e-06
2.94113e-08
3.29497e-08
6.98732e-06
2.37126e-05
5.41555e-05
7.77611e-05
8.91301e-05
9.43287e-05
9.58602e-05
9.48247e-05
9.18534e-05
8.72773e-05
8.13176e-05
7.41785e-05
6.59412e-05
5.69206e-05
4.82134e-05
4.15243e-05
3.80479e-05
3.82364e-05
4.13968e-05
4.55602e-05
4.82432e-05
4.83477e-05
4.63171e-05
4.36742e-05
4.16051e-05
4.07244e-05
4.14622e-05
4.46656e-05
5.14642e-05
6.08986e-05
6.42471e-05
3.33033e-05
6.64441e-06
3.04523e-08
3.21574e-08
6.8884e-06
2.35079e-05
5.37359e-05
7.73669e-05
8.89125e-05
9.42543e-05
9.58475e-05
9.4789e-05
9.17765e-05
8.7244e-05
8.15965e-05
7.51518e-05
6.78913e-05
5.96197e-05
5.07013e-05
4.25725e-05
3.73733e-05
3.61417e-05
3.86211e-05
4.31833e-05
4.71081e-05
4.82698e-05
4.6895e-05
4.43045e-05
4.19987e-05
4.09349e-05
4.17645e-05
4.52209e-05
5.22511e-05
6.18165e-05
6.52698e-05
3.40721e-05
6.8383e-06
3.18445e-08
3.13428e-08
6.79055e-06
2.32667e-05
5.34056e-05
7.71254e-05
8.87545e-05
9.41342e-05
9.56823e-05
9.45224e-05
9.13083e-05
8.66858e-05
8.12788e-05
7.55776e-05
6.9494e-05
6.23947e-05
5.40158e-05
4.55582e-05
3.85134e-05
3.49652e-05
3.56963e-05
4.00924e-05
4.49751e-05
4.73983e-05
4.73741e-05
4.53114e-05
4.28002e-05
4.13596e-05
4.18708e-05
4.51574e-05
5.22388e-05
6.22189e-05
6.62108e-05
3.48081e-05
7.01975e-06
3.30877e-08
3.06898e-08
6.68478e-06
2.29666e-05
5.32405e-05
7.72633e-05
8.87341e-05
9.38767e-05
9.5207e-05
9.38036e-05
9.03666e-05
8.56258e-05
8.04522e-05
7.55434e-05
7.08989e-05
6.56971e-05
5.87207e-05
4.98121e-05
4.13459e-05
3.53844e-05
3.34914e-05
3.64968e-05
4.15911e-05
4.53377e-05
4.7126e-05
4.5983e-05
4.36373e-05
4.18692e-05
4.2066e-05
4.53788e-05
5.29563e-05
6.35603e-05
6.73315e-05
3.50594e-05
7.16749e-06
3.40093e-08
3.02248e-08
6.58384e-06
2.27255e-05
5.27998e-05
7.66411e-05
8.80441e-05
9.29361e-05
9.36216e-05
9.17285e-05
8.8127e-05
8.33863e-05
7.85233e-05
7.44917e-05
7.13373e-05
6.80614e-05
6.30308e-05
5.52305e-05
4.56991e-05
3.75707e-05
3.31586e-05
3.39971e-05
3.79914e-05
4.22176e-05
4.56206e-05
4.5932e-05
4.4113e-05
4.24822e-05
4.27259e-05
4.63596e-05
5.45969e-05
6.55975e-05
6.85632e-05
3.52251e-05
7.32043e-06
3.49814e-08
3.00376e-08
6.51271e-06
2.2572e-05
5.27365e-05
7.63155e-05
8.73479e-05
9.19836e-05
9.23919e-05
8.98475e-05
8.51417e-05
7.96575e-05
7.49563e-05
7.18872e-05
7.03753e-05
6.92692e-05
6.6742e-05
6.08761e-05
5.16747e-05
4.17671e-05
3.4755e-05
3.3165e-05
3.51222e-05
3.87408e-05
4.31286e-05
4.50604e-05
4.45076e-05
4.3426e-05
4.40195e-05
4.8058e-05
5.67406e-05
6.7582e-05
6.93861e-05
3.54171e-05
7.44892e-06
3.58545e-08
3.00524e-08
6.43965e-06
2.27932e-05
5.37498e-05
7.68155e-05
8.70348e-05
9.08267e-05
9.04705e-05
8.71894e-05
8.1697e-05
7.57612e-05
7.13132e-05
6.95184e-05
6.98044e-05
7.0805e-05
7.04094e-05
6.63883e-05
5.79935e-05
4.73312e-05
3.82883e-05
3.41078e-05
3.37828e-05
3.61385e-05
4.05545e-05
4.35754e-05
4.42839e-05
4.41946e-05
4.55219e-05
5.02313e-05
5.92698e-05
6.94989e-05
6.9878e-05
3.52499e-05
7.55978e-06
3.66515e-08
3.0136e-08
6.39766e-06
2.30953e-05
5.47901e-05
7.70119e-05
8.62646e-05
8.9757e-05
8.82939e-05
8.3229e-05
7.65312e-05
7.05305e-05
6.71526e-05
6.70211e-05
6.9582e-05
7.28074e-05
7.44072e-05
7.20492e-05
6.45164e-05
5.35296e-05
4.2956e-05
3.58206e-05
3.32429e-05
3.48809e-05
3.86897e-05
4.21556e-05
4.39067e-05
4.49298e-05
4.72262e-05
5.27342e-05
6.1949e-05
7.13362e-05
7.02752e-05
3.5084e-05
7.61713e-06
3.71282e-08
3.00481e-08
6.42352e-06
2.3673e-05
5.51716e-05
7.6697e-05
8.5713e-05
8.77497e-05
8.45018e-05
7.80977e-05
7.07635e-05
6.52096e-05
6.31804e-05
6.49154e-05
6.94632e-05
7.4985e-05
7.85591e-05