/*--------------------------------*- C++ -*----------------------------------*\
  =========                 |
  \\      /  F ield         | OpenFOAM: The Open Source CFD Toolbox
   \\    /   O peration     | Website:  https://openfoam.org
    \\  /    A nd           | Version:  11
     \\/     M anipulation  |
\*---------------------------------------------------------------------------*/
FoamFile
{
    format      ascii;
    class       volScalarField;
    location    "750";
    object      k;
}
// * * * * * * * * * * * * * * * * * * * * * * * * * * * * * * * * * * * * * //

dimensions      [0 2 -2 0 0 0 0];

internalField   nonuniform List<scalar> 
78750
(
9.33429e-06
0.000201117
0.000502721
0.0005695
0.000600883
0.000630401
0.00066448
0.000698751
0.000729913
0.000757123
0.00078022
0.000799779
0.000815774
0.000828155
0.000837554
0.000843473
0.000849162
0.000848991
0.000847033
0.000845778
0.000846124
0.000847713
0.000846901
0.000847188
0.000848803
0.000850747
0.000854231
0.000862193
0.00087341
0.000891438
0.000921593
0.000965779
0.000955246
0.000595138
3.88049e-05
2.61322e-06
7.03457e-05
0.00025094
0.000347788
0.000426238
0.000494395
0.000550879
0.000596284
0.000632616
0.000661497
0.000684886
0.000703085
0.000715195
0.000723491
0.000727496
0.000727278
0.000725609
0.000721248
0.000714399
0.000705155
0.00069406
0.000679976
0.000663005
0.000644783
0.000626856
0.000611288
0.000597516
0.000588206
0.000588739
0.000595082
0.0006229
0.000670121
0.000662668
0.000384405
2.02278e-05
2.16398e-06
6.20304e-05
0.000277591
0.000422999
0.000542784
0.000633975
0.00069995
0.000748353
0.000783579
0.000807821
0.000821689
0.000827385
0.000827375
0.000823619
0.00081484
0.000802459
0.000786598
0.000767879
0.000746589
0.000723251
0.000699117
0.000675254
0.000651196
0.000627139
0.000603956
0.000581979
0.000560467
0.000541759
0.000528416
0.000521952
0.000524743
0.000534352
0.000508167
0.000219516
9.55008e-06
3.0973e-06
8.9824e-05
0.00035391
0.000528126
0.000639814
0.00070979
0.000756323
0.000788568
0.000810894
0.000825794
0.000834785
0.000838574
0.000837892
0.000832399
0.000822765
0.000809298
0.000792058
0.000771521
0.000748317
0.000722963
0.000695157
0.000664731
0.000633803
0.000603148
0.000573668
0.000545086
0.000518908
0.000497468
0.000480534
0.000469501
0.00046622
0.000461702
0.000408739
0.00014436
5.64682e-06
4.4629e-06
0.000127189
0.000409476
0.000595498
0.000704944
0.000773628
0.000821255
0.000855842
0.000880424
0.000896396
0.000904601
0.00090567
0.000901496
0.000890658
0.000874289
0.000852946
0.000827644
0.000799019
0.000767554
0.000733781
0.000698826
0.000663467
0.000628144
0.00059368
0.000560811
0.000529068
0.000499466
0.00047454
0.000454175
0.000438331
0.000427972
0.000412164
0.000341222
0.00010859
4.18434e-06
5.61961e-06
0.000158834
0.000469295
0.000648842
0.000748533
0.000810802
0.000853941
0.000884288
0.000904563
0.00091636
0.000920749
0.000918948
0.000910853
0.000897474
0.000879364
0.000857012
0.000830847
0.000801363
0.000769065
0.000734423
0.000698307
0.000661472
0.000624818
0.000589189
0.000554461
0.000520027
0.000487364
0.000459532
0.000435726
0.000415989
0.000401487
0.000384361
0.000324924
9.66718e-05
3.61302e-06
6.80711e-06
0.000190555
0.000512529
0.00069395
0.000794204
0.000857368
0.000901656
0.00093319
0.000954462
0.000966843
0.000971232
0.000968855
0.000959616
0.000944331
0.000923555
0.000897838
0.000867731
0.000833782
0.00079677
0.000757699
0.000717404
0.000676521
0.000635594
0.000595556
0.000557353
0.000520758
0.000485994
0.000455283
0.00042912
0.00040628
0.000387287
0.00036759
0.000311244
9.24896e-05
3.43158e-06
7.50126e-06
0.000208729
0.000543465
0.000723427
0.000821343
0.00088318
0.000926345
0.000956514
0.000976114
0.000986544
0.00098879
0.000984321
0.000972801
0.000955342
0.000932655
0.000905335
0.000873995
0.000839228
0.000801558
0.000761709
0.000720403
0.000678362
0.000636594
0.000595741
0.000555959
0.000516861
0.000480664
0.000449528
0.00042182
0.000396865
0.00037662
0.000357314
0.000307912
9.12336e-05
3.32322e-06
8.64826e-06
0.000238649
0.000581047
0.000762839
0.000861532
0.000924237
0.000968303
0.000999227
0.00101934
0.00102998
0.00103213
0.00102725
0.00101495
0.000996309
0.000971952
0.000942578
0.000908998
0.000872145
0.000832823
0.000791671
0.000749311
0.000706239
0.000662866
0.000619537
0.000576525
0.000533997
0.00049409
0.000458671
0.00042634
0.000397205
0.000372631
0.000352668
0.000324935
8.60545e-05
3.14057e-06
9.21794e-06
0.000253207
0.000603628
0.000785939
0.000884468
0.000947119
0.000990948
0.00102131
0.00104052
0.00104996
0.00105069
0.0010443
0.00103029
0.00100995
0.000984037
0.00095338
0.000918852
0.00088137
0.000841775
0.000800756
0.00075896
0.000716838
0.000674683
0.000632423
0.000589448
0.000545445
0.000503623
0.000466347
0.000431465
0.000398852
0.000371636
0.000348894
0.000320462
8.49432e-05
3.12533e-06
1.04446e-05
0.000284416
0.000640003
0.000823446
0.000922552
0.000985893
0.00103036
0.00106115
0.00108048
0.00108963
0.00108962
0.00108207
0.00106647
0.00104424
0.00101622
0.000983332
0.000946578
0.000907028
0.000865613
0.000823282
0.000780866
0.000738759
0.000697137
0.000655748
0.000613694
0.000570211
0.000527374
0.000487407
0.000449511
0.000413242
0.000382142
0.000361563
0.000353905
9.31544e-05
3.37647e-06
1.10157e-05
0.000298646
0.000660082
0.000844325
0.000943806
0.00100751
0.00105215
0.00108286
0.00110183
0.00111035
0.00110952
0.00110015
0.00108312
0.00105937
0.0010298
0.000995409
0.000957317
0.000916733
0.000874673
0.00083199
0.000789525
0.000747845
0.000707148
0.000666796
0.000625706
0.000584121
0.000544134
0.000505029
0.000464594
0.000426255
0.000392746
0.00036652
0.000345809
9.1296e-05
3.27601e-06
1.23282e-05
0.000331277
0.000695794
0.000879928
0.000979518
0.00104374
0.00108894
0.00112006
0.00113919
0.00114753
0.00114615
0.00113568
0.00111705
0.00109127
0.00105933
0.00102235
0.000981546
0.000938235
0.000893578
0.000848737
0.000804848
0.000762575
0.000721922
0.000681936
0.000641268
0.000600676
0.000560882
0.000519352
0.000475031
0.000432884
0.000398207
0.000370928
0.000343994
9.18148e-05
3.29301e-06
1.28777e-05
0.000344648
0.000713738
0.000898857
0.000999221
0.00106421
0.00111003
0.00114157
0.00116092
0.00116929
0.00116772
0.00115686
0.00113756
0.00111072
0.0010775
0.00103895
0.00099639
0.000951338
0.000905188
0.000859339
0.000815
0.000772829
0.000732973
0.000694824
0.000657084
0.000619838
0.000582688
0.000542353
0.000496836
0.000448662
0.000406699
0.000375636
0.000349061
9.38851e-05
3.39512e-06
1.41776e-05
0.000376224
0.000747034
0.000931508
0.00103194
0.00109757
0.00114414
0.00117636
0.00119626
0.00120501
0.00120362
0.00119277
0.00117319
0.00114557
0.00111071
0.00106971
0.00102399
0.000975452
0.000925478
0.000875742
0.000827936
0.000783216
0.00074197
0.000703859
0.000667838
0.000633761
0.000600622
0.000565035
0.000524225
0.000477701
0.000429203
0.000389068
0.000354428
9.64321e-05
3.41576e-06
1.46583e-05
0.000387729
0.000762218
0.000948169
0.00104992
0.00111682
0.00116454
0.00119777
0.00121854
0.00122801
0.0012272
0.001217
0.00119794
0.00117082
0.0011364
0.00109553
0.0010492
0.000998729
0.000945806
0.000892857
0.000841688
0.000793798
0.0007497
0.000709164
0.000671677
0.000636941
0.000603673
0.000568904
0.000530558
0.000488359
0.000442586
0.000395728
0.000344268
9.60683e-05
3.38523e-06
1.5858e-05
0.000416358
0.000791711
0.000977571
0.00107988
0.00114778
0.0011966
0.00123089
0.00125267
0.00126307
0.00126307
0.0012538
0.00123532
0.00120857
0.00117421
0.00113302
0.00108593
0.00103409
0.000978697
0.000921276
0.000864382
0.000811507
0.00076362
0.000720387
0.000680617
0.000643657
0.000607716
0.000570326
0.000531294
0.00048947
0.000444343
0.000397797
0.000337892
9.72445e-05
3.50292e-06
1.62532e-05
0.000425595
0.000804872
0.000993193
0.00109742
0.00116697
0.00121727
0.00125295
0.00127605
0.00128774
0.00128897
0.00128076
0.0012634
0.00123768
0.00120421
0.00116364
0.00111682
0.00106477
0.00100867
0.000949993
0.000890858
0.000833935
0.000783035
0.000739119
0.000701648
0.000668306
0.000635024
0.000596274
0.000549352
0.000498626
0.000449049
0.000401922
0.000344081
0.000102068
3.75813e-06
1.73069e-05
0.000450253
0.000831333
0.00102023
0.0011254
0.00119617
0.00124778
0.00128484
0.00130936
0.00132251
0.00132522
0.00131834
0.00130231
0.00127772
0.00124505
0.00120484
0.00115778
0.00110473
0.00104668
0.000984873
0.000921251
0.000858298
0.000799314
0.000749249
0.000709705
0.000679714
0.0006535
0.000625459
0.000589617
0.000541374
0.000482823
0.000421809
0.000352236
0.000105689
3.77747e-06
1.75254e-05
0.000455249
0.000841624
0.00103368
0.00114121
0.00121402
0.0012676
0.00130665
0.00133325
0.00134851
0.00135338
0.00134861
0.00133475
0.00131224
0.00128147
0.00124284
0.00119689
0.0011443
0.00108586
0.00102255
0.000955852
0.000887593
0.000820171
0.000757218
0.000704066
0.000666984
0.000641757
0.000620548
0.000593818
0.000558275
0.00050569
0.000436502
0.000348496
0.000107873
3.84463e-06
1.83058e-05
0.000470781
0.000860721
0.00105517
0.00116472
0.00123935
0.00129485
0.00133603
0.00136495
0.00138271
0.00139018
0.00138819
0.00137716
0.00135745
0.00132932
0.00129307
0.00124906
0.00119785
0.00114006
0.00107658
0.00100868
0.000937794
0.000865444
0.00079349
0.000725334
0.000667947
0.000626463
0.000599161
0.000579561
0.000553221
0.000509743
0.000442295
0.000348044
0.000111485
4.03749e-06
1.86117e-05
0.00047651
0.000869732
0.00106713
0.00117926
0.00125628
0.0013141
0.00135768
0.00138917
0.0014097
0.00142015
0.00142121
0.00141336
0.00139689
0.00137198
0.0013388
0.00129757
0.00124867
0.00119263
0.00113026
0.00106286
0.00099198
0.000919127
0.000844988
0.0007704
0.000700984
0.000643514
0.00060208
0.000576653
0.0005512
0.000510628
0.00044895
0.000358577
0.000118603
4.37563e-06
1.92207e-05
0.000489093
0.000885644
0.00108684
0.00120167
0.00128069
0.0013405
0.0013863
0.00142027
0.00144356
0.00145697
0.00146115
0.00145662
0.00144357
0.00142206
0.00139212
0.00135378
0.00130719
0.00125266
0.00119086
0.00112288
0.0010503
0.000974892
0.000897407
0.000818095
0.000742429
0.000677536
0.000625844
0.000589391
0.000559992
0.000520383
0.000456029
0.000358543
0.000121537
4.40644e-06
1.95804e-05
0.00049748
0.000894573
0.00109905
0.00121678
0.00129828
0.00136049
0.00140874
0.00144532
0.00147142
0.00148781
0.00149521
0.00149409
0.00148467
0.0014669
0.00144067
0.00140585
0.00136239
0.00131042
0.00125038
0.00118313
0.00110988
0.00103198
0.000949318
0.000861116
0.000773367
0.000696546
0.000636833
0.000596987
0.00056854
0.000530225
0.000462
0.000357182
0.000124053
4.45548e-06
2.01704e-05
0.000513837
0.00091055
0.0011193
0.00124027
0.00132387
0.00138791
0.00143807
0.00147674
0.00150516
0.00152408
0.00153424
0.00153613
0.00153028
0.00151607
0.00149353
0.00146229
0.00142215
0.00137316
0.00131577
0.00125081
0.00117947
0.00110279
0.00101949
0.000926282
0.000826938
0.000732831
0.000654125
0.000601672
0.000569874
0.000531139
0.000463685
0.000359706
0.000128551
4.7714e-06
2.08759e-05
0.000533481
0.000926717
0.00113796
0.00126151
0.00134704
0.00141281
0.00146463
0.00150499
0.00153523
0.00155611
0.00156848
0.00157287
0.00156981
0.00155876
0.00153952
0.00151153
0.00147434
0.00142792
0.00137272
0.0013097
0.00124023
0.00116574
0.0010854
0.00099538
0.000896883
0.000797731
0.000704417
0.000630669
0.000581957
0.000540284
0.000474812
0.000365468
0.000135454
5.19897e-06
2.26162e-05
0.000572268
0.000957764
0.00116803
0.00129261
0.00137933
0.00144604
0.00149862
0.0015397
0.00157076
0.00159269
0.00160649
0.00161281
0.00161203
0.00160384
0.00158767
0.00156336
0.00152994
0.00148654
0.00143305
0.0013703
0.00129988
0.00122331
0.00114045
0.0010486
0.000949708
0.000851474
0.000756432
0.000672302
0.000609157
0.000557781
0.000488237
0.000373513
0.000140098
5.22653e-06
2.47375e-05
0.000618463
0.000990101
0.0011963
0.00132001
0.001407
0.00147438
0.00152773
0.00156952
0.00160128
0.00162405
0.00163902
0.00164715
0.00164896
0.00164531
0.00163549
0.00161829
0.00159146
0.00155299
0.00150207
0.00143961
0.00136851
0.00128853
0.00119916
0.00109918
0.000992445
0.000887919
0.000789177
0.000702246
0.000633073
0.000573193
0.000495604
0.000375015
0.000143338
5.23308e-06
2.71115e-05
0.000669193
0.00102691
0.00122889
0.00135106
0.00143741
0.00150432
0.00155705
0.00159802
0.00162875
0.00165047
0.00166465
0.00167261
0.00167543
0.00167465
0.00166963
0.00165917
0.00164125
0.00161354
0.00157409
0.00152149
0.00145403
0.00137016
0.00126932
0.00115483
0.0010315
0.000909639
0.000797726
0.000708983
0.000643675
0.000582909
0.000499987
0.000375972
0.000146725
5.35467e-06
2.88149e-05
0.000705599
0.00105745
0.00125488
0.00137456
0.00145982
0.00152609
0.00157818
0.0016183
0.00164783
0.00166817
0.00168105
0.00168787
0.0016901
0.00168956
0.00168701
0.00168135
0.00167069
0.0016526
0.00162515
0.0015871
0.00153574
0.00146712
0.00137712
0.00126184
0.00112465
0.000979088
0.000838127
0.000725233
0.000649642
0.00058849
0.000506947
0.000383954
0.000151627
5.71016e-06
3.06421e-05
0.000744005
0.00108942
0.00128047
0.00139641
0.00147963
0.00154444
0.00159513
0.0016336
0.00166116
0.00167916
0.00168869
0.00169168
0.00169196
0.00169111
0.00169027
0.0016903
0.00168793
0.00167759
0.00165694
0.00162629
0.00158341
0.00152554
0.00145044
0.00135478
0.00123748
0.00109896
0.000938144
0.000789257
0.000685621
0.000611658
0.000526063
0.00040035
0.000163028
6.09186e-06
3.1968e-05
0.00077064
0.00110973
0.00129513
0.00140808
0.00148992
0.0015539
0.00160377
0.0016412
0.00166715
0.00168249
0.0016896
0.00169155
0.0016904
0.00168892
0.00168928
0.00169087
0.00169181
0.00168846
0.00167747
0.00165393
0.00161664
0.00156392
0.00149545
0.00140996
0.00130559
0.00117903
0.00102467
0.000860063
0.000726995
0.000633023
0.000537918
0.000407251
0.000168394
6.21599e-06
3.31297e-05
0.000794204
0.00112673
0.00130691
0.001417
0.00149741
0.00156052
0.0016096
0.00164568
0.00166946
0.00168261
0.00168694
0.00168492
0.00167953
0.00167489
0.00167469
0.00167953
0.00168617
0.00168813
0.00168175
0.00166415
0.00163097
0.0015804
0.00151224
0.00142594
0.00131962
0.00119054
0.00104017
0.000885735
0.000753377
0.000649753
0.000545746
0.000408647
0.000170359
6.26499e-06
3.35391e-05
0.000802665
0.00113223
0.00131065
0.00141976
0.00149963
0.00156232
0.00161107
0.00164717
0.0016709
0.00168344
0.00168649
0.00168267
0.00167457
0.00166577
0.0016607
0.00166281
0.00167119
0.00167932
0.0016801
0.00166953
0.00164425
0.00160037
0.00153704
0.00145239
0.00134318
0.00120579
0.00104709
0.000892189
0.000765474
0.000664233
0.000558414
0.000420131
0.000181543
6.6673e-06
3.37209e-05
0.000806293
0.00113723
0.00131528
0.00142394
0.00150346
0.00156584
0.00161418
0.00164953
0.00167247
0.00168379
0.00168497
0.00167815
0.00166684
0.00165365
0.00164393
0.00164225
0.0016494
0.00166182
0.00167057
0.0016694
0.00165444
0.00162387
0.00157418
0.00150218
0.00140379
0.00127251
0.00111042
0.000940486
0.00079703
0.000686692
0.000576845
0.000437487
0.000194752
7.28743e-06
3.37735e-05
0.000806803
0.0011401
0.00131832
0.00142688
0.00150619
0.0015683
0.0016163
0.00165106
0.00167285
0.00168292
0.00168242
0.00167249
0.00165358
0.0016324
0.00161548
0.00161072
0.00161646
0.00163035
0.00164501
0.00165226
0.00164711
0.00162627
0.00158818
0.00153053
0.0014487
0.00133489
0.00118605
0.00101449
0.000850705
0.000718798
0.000598045
0.000453432
0.00020584
7.63309e-06
3.41119e-05
0.000807023
0.0011419
0.00132196
0.00143073
0.00151002
0.0015722
0.00162067
0.00165629
0.00167903
0.00168862
0.00168618
0.00167343
0.00165271
0.00162665
0.00159931
0.00157516
0.00156966
0.00158192
0.00159962
0.00161373
0.00161625
0.00160367
0.00157337
0.00152357
0.00144937
0.00134702
0.00121468
0.00105749
0.000894855
0.000751111
0.000620529
0.000468918
0.000213268
7.91102e-06
3.42715e-05
0.000801346
0.00114024
0.00132216
0.00143303
0.00151336
0.00157628
0.00162606
0.00166371
0.0016894
0.00170275
0.00170413
0.00169333
0.00167058
0.00163788
0.00159987
0.00156417
0.00153681
0.00152447
0.00153647
0.00155413
0.00156626
0.00156387
0.00154284
0.00150071
0.0014341
0.00133851
0.0012152
0.00107058
0.000919205
0.000776201
0.000640741
0.000483909
0.000223248
8.27103e-06
3.41259e-05
0.000796549
0.00113602
0.0013212
0.00143421
0.00151696
0.00158225
0.00163389
0.00167381
0.00170317
0.00172213
0.00173008
0.00172673
0.00171062
0.00168096
0.00163852
0.00158738
0.00153652
0.00149849
0.00147711
0.00148115
0.00149648
0.00150639
0.00150069
0.00147348
0.00141987
0.00133555
0.00122018
0.00108362
0.000939791
0.000800452
0.000664092
0.000505679
0.000239139
9.14677e-06
3.38267e-05
0.000794305
0.00113325
0.00132127
0.0014371
0.00152187
0.00158927
0.00164331
0.00168552
0.00171677
0.00173823
0.00175021
0.00175233
0.00174366
0.00172278
0.00168856
0.001641
0.00158139
0.00151733
0.00146521
0.00143572
0.00143101
0.00144019
0.00144523
0.00143652
0.00140395
0.00134044
0.00124576
0.00111909
0.000976341
0.000834507
0.000693816
0.000531761
0.000256766
9.96109e-06
3.3527e-05
0.000793747
0.00113209
0.00132307
0.00144154
0.00152848
0.00159791
0.00165416
0.00169926
0.00173431
0.00176028
0.00177778
0.00178661
0.00178565
0.00177301
0.00174648
0.00170454
0.0016471
0.00157807
0.00150307
0.00143616
0.00139673
0.00138381
0.00138489
0.00138541
0.00137401
0.00133655
0.00126247
0.00115445
0.00101598
0.000868262
0.000720406
0.000552351
0.000270849
1.03356e-05
3.3121e-05
0.000793486
0.00113193
0.00132652
0.0014477
0.00153628
0.00160691
0.00166438
0.00171102
0.00174804
0.0017759
0.00179589
0.00180866
0.00181364
0.00180929
0.00179187
0.00175805
0.0017077
0.00164125
0.00156239
0.0014776
0.00140059
0.00135118
0.00132999
0.0013256
0.00132305
0.00130659
0.00126026
0.00117066
0.00104591
0.000899808
0.000748594
0.000575274
0.000287406
1.0876e-05
3.3134e-05
0.000798013
0.00113652
0.00133453
0.00145785
0.0015478
0.0016197
0.00167839
0.001726
0.00176369
0.00179229
0.00181366
0.00182904
0.00183838
0.00183995
0.001832
0.0018116
0.00177507
0.00171851
0.00164103
0.0015472
0.00144859
0.00136299
0.00130635
0.00127602
0.00126345
0.00125401
0.0012288
0.00116716
0.00105881
0.000919264
0.000768457
0.000592149
0.000299179
1.13743e-05
3.36332e-05
0.000808536
0.00114452
0.00134242
0.00146673
0.0015579
0.00163073
0.00168988
0.00173751
0.00177498
0.00180326
0.00182464
0.00184119
0.001854
0.00186345
0.00186841
0.00186452
0.00184566
0.00180667
0.00174413
0.00165689
0.00154954
0.00143922
0.00134595
0.00128081
0.00124242
0.00121606
0.00118935
0.00114287
0.00105891
0.000936511
0.000793129
0.000618576
0.000320409
1.25934e-05
3.41051e-05
0.000818125
0.00115253
0.00135038
0.00147523
0.00156714
0.00164063
0.00170025
0.00174809
0.00178545
0.00181325
0.00183356
0.00184844
0.0018607
0.00187222
0.00188243
0.0018877
0.0018825
0.00185902
0.00181482
0.00174646
0.00165361
0.00154613
0.00143996
0.00134401
0.00126888
0.00122096
0.0011877
0.00114154
0.0010646
0.000953964
0.000815544
0.000641778
0.000336856
1.33503e-05
3.46067e-05
0.00082777
0.0011592
0.00135513
0.00147921
0.00157113
0.00164481
0.00170446
0.00175197
0.0017885
0.00181506
0.00183434
0.00184889
0.00186109
0.00187254
0.00188342
0.00189167
0.00189349
0.00188579
0.00185729
0.00180625
0.00173114
0.00163766
0.00153645
0.00143448
0.0013428
0.00126896
0.00120757
0.00115111
0.00107833
0.000973483
0.000838323
0.00066448
0.000360892
1.39947e-05
3.50023e-05
0.000835246
0.00116296
0.00135618
0.0014797
0.00157172
0.00164566
0.00170559
0.00175327
0.00178961
0.00181544
0.00183253
0.00184395
0.00185254
0.0018613
0.00187222
0.00188442
0.00189325
0.00189192
0.00187571
0.00183783
0.001776
0.00169366
0.00159851
0.00149772
0.0014023
0.00132038
0.00125003
0.00118125
0.00109879
0.000989708
0.000854216
0.000678495
0.000372723
1.44366e-05
3.50926e-05
0.000836326
0.00116316
0.00135503
0.00147755
0.00156936
0.00164333
0.00170312
0.00175022
0.00178567
0.00181047
0.00182677
0.00183687
0.00184346
0.00184952
0.00185768
0.00186884
0.00188062
0.00188704
0.00188073
0.00185385
0.00180263
0.00172798
0.00163537
0.00153265
0.00143243
0.0013463
0.00127491
0.001205
0.00111942
0.00100721
0.00087089
0.00069466
0.00039136
1.52139e-05
3.51008e-05
0.000836321
0.0011594
0.00134927
0.00147099
0.00156246
0.00163649
0.00169679
0.00174484
0.00178138
0.00180722
0.00182415
0.00183427
0.00183999
0.00184412
0.00184963
0.00185854
0.00187032
0.00188098
0.00188364
0.00187181
0.0018372
0.00177705
0.00169232
0.00158672
0.00147294
0.001369
0.00128506
0.00121308
0.00113254
0.00102585
0.000893312
0.000719665
0.00041704
1.64546e-05
3.48222e-05
0.00083044
0.00115321
0.00134293
0.00146461
0.00155638
0.00163092
0.00169169
0.00173998
0.00177647
0.0018021
0.00181862
0.0018279
0.00183207
0.00183376
0.00183592
0.00184126
0.00185094
0.00186331
0.00187366
0.0018751
0.00186162
0.00182589
0.00176312
0.00167207
0.00155993
0.00144113
0.00133181
0.00123773
0.00114845
0.00104287
0.000913264
0.000742547
0.000438387
1.75868e-05
3.44642e-05
0.000822904
0.00114616
0.00133581
0.00145754
0.0015494
0.00162392
0.00168465
0.00173297
0.00176961
0.00179558
0.00181263
0.00182259
0.00182739
0.00182919
0.00183035
0.00183301
0.0018385
0.00184663
0.00185522
0.00186023
0.00185652
0.00183756
0.00179806
0.00173284
0.00164158
0.00153057
0.00141163
0.00129582
0.00118592
0.0010697
0.000937773
0.000766278
0.000460399
1.82068e-05
3.41394e-05
0.00081609
0.00113971
0.00132986
0.00145164
0.0015432
0.00161728
0.00167748
0.00172521
0.00176123
0.00178661
0.00180318
0.00181281
0.00181752
0.00181952
0.00182104
0.00182374
0.00182822
0.00183388
0.00183915
0.00184172
0.0018385
0.00182527
0.00179692
0.00174883
0.00167987
0.0015874
0.00147586
0.00135334
0.00122854
0.00109973
0.000962905
0.00078753
0.000475533
1.88795e-05
3.38106e-05
0.000809183
0.00113258
0.00132294
0.00144495
0.00153675
0.00161099
0.00167123
0.00171881
0.00175445
0.00177928
0.00179515
0.00180399
0.00180788
0.00180921
0.00181036
0.00181296
0.00181709
0.00182124
0.00182319
0.0018219
0.00181507
0.00180039
0.00177579
0.00173837
0.00168148
0.00160778
0.00151216
0.00139515
0.00126504
0.00112875
0.000988055
0.00080829
0.00049071
1.944e-05
3.32689e-05
0.000796997
0.00112263
0.00131526
0.00143868
0.00153115
0.00160554
0.00166549
0.00171245
0.00174719
0.00177092
0.0017856
0.00179329
0.00179625
0.00179703
0.00179833
0.00180198
0.00180777
0.00181336
0.00181555
0.00181089
0.00179793
0.00177671
0.00174714
0.00170954
0.00166375
0.00160267
0.00152303
0.00141905
0.00129459
0.00115777
0.00101468
0.000831076
0.00050765
2.01522e-05
3.2728e-05
0.000785653
0.00111274
0.00130681
0.00143128
0.00152458
0.00159961
0.00166
0.00170711
0.00174162
0.00176469
0.00177832
0.00178466
0.00178614
0.00178564
0.00178637
0.00179096
0.00179963
0.00180924
0.00181507
0.00181274
0.0017998
0.00177654
0.00174365
0.00170109
0.00165086
0.00159276
0.00152238
0.00143026
0.00131593
0.00118475
0.00104409
0.000861507
0.000537209
2.1721e-05
3.20209e-05
0.00077143
0.00110195
0.00129887
0.00142519
0.00151972
0.00159558
0.00165643
0.00170367
0.00173793
0.00176026
0.00177266
0.00177739
0.00177687
0.00177425
0.00177338
0.00177758
0.00178874
0.0018042
0.00181813
0.00182446
0.00181872
0.00179734
0.00176034
0.00171153
0.00165504
0.00159411
0.00152376
0.00144031
0.00133621
0.00121285
0.00107602
0.000894767
0.000561247
2.32355e-05
3.12451e-05
0.000756155
0.00109059
0.00129042
0.00141886
0.00151504
0.00159222
0.00165408
0.00170217
0.0017369
0.00175882
0.0017697
0.0017718
0.00176818
0.00176188
0.00175708
0.00175813
0.00176772
0.00178544
0.00180657
0.00182388
0.00183062
0.00182298
0.00179643
0.00175172
0.00169206
0.00162167
0.00154629
0.00146046
0.0013582
0.00123762
0.00110258
0.000922347
0.000588811
2.41187e-05
3.06074e-05
0.000742394
0.00108074
0.00128317
0.00141363
0.00151152
0.00159021
0.00165344
0.00170208
0.00173691
0.00175881
0.00176929
0.00176984
0.00176463
0.00175614
0.0017487
0.00174633
0.00175167
0.00176649
0.00178782
0.00180989
0.00182587
0.00182979
0.00181821
0.00178554
0.00173262
0.00166295
0.00158148
0.00148893
0.00138258
0.00126157
0.00112811
0.000948213
0.000612341
2.49873e-05
3.00888e-05
0.000731092
0.00107235
0.00127698
0.00140932
0.00150887
0.00158901
0.00165342
0.001703
0.00173834
0.00175977
0.00176906
0.00176835
0.00175836
0.00174537
0.00173398
0.00172918
0.00173351
0.00174691
0.00176667
0.001789
0.00180913
0.00182199
0.00181998
0.00180082
0.00175962
0.00169634
0.00161435
0.00151678
0.00140539
0.00128288
0.00114939
0.00096755
0.000627234
2.56288e-05
2.94961e-05
0.000718009
0.00106293
0.00126997
0.00140449
0.00150615
0.00158829
0.00165447
0.00170606
0.00174275
0.00176449
0.00177251
0.00176887
0.00175668
0.00173778
0.00172194
0.00171453
0.00171839
0.00173137
0.00174899
0.00176804
0.00178635
0.00180125
0.00180819
0.00179874
0.00176827
0.00171523
0.00163913
0.00154196
0.00142841
0.00130434
0.00116928
0.00098462
0.000639817
2.61453e-05
2.89578e-05
0.000706144
0.0010535
0.00126203
0.00139818
0.00150169
0.00158593
0.00165448
0.00170831
0.00174717
0.00177042
0.00177867
0.00177324
0.00175671
0.0017339
0.00170888
0.00169551
0.0016983
0.00171382
0.00173358
0.00175198
0.00176741
0.00177953
0.00178664
0.00178417
0.00176544
0.00172364
0.00165649
0.00156461
0.00145265
0.00132784
0.00119113
0.00100439
0.000656968
2.69157e-05
2.82628e-05
0.00069076
0.00104121
0.00125187
0.00139001
0.00149567
0.00158239
0.00165389
0.00171104
0.00175346
0.00177998
0.00179033
0.00178499
0.00176537
0.00173572
0.00170468
0.00167977
0.00167644
0.00169249
0.00171686
0.00173914
0.00175532
0.00176541
0.00177013
0.00176822
0.00175484
0.00172299
0.00166615
0.00158206
0.00147458
0.00135157
0.00121467
0.00102685
0.000677711
2.78699e-05
2.76589e-05
0.00067549
0.00102843
0.00124077
0.00138054
0.001488
0.00157697
0.00165138
0.00171228
0.00175921
0.00179068
0.00180559
0.00180338
0.00178402
0.00175003
0.00170852
0.00167322
0.00165455
0.00166628
0.0016952
0.00172554
0.00174786
0.00176019
0.00176415
0.00176119
0.00174944
0.00172296
0.00167303
0.00159599
0.00149383
0.0013738
0.0012376
0.00104875
0.00069628
2.8839e-05
2.69937e-05
0.000660335
0.00101467
0.00122841
0.00136965
0.00147881
0.00157
0.00164744
0.00171235
0.00176479
0.00180269
0.00182446
0.00182814
0.0018124
0.00177777
0.00172866
0.00167639
0.0016408
0.00163349
0.00166118
0.00170093
0.00173468
0.00175517
0.00176279
0.00176041
0.00174866
0.00172383
0.00168
0.00160985
0.0015136
0.00139721
0.00126246
0.00107359
0.00071849
3.01518e-05
2.63123e-05
0.00064738
0.001002
0.0012168
0.00135905
0.0014694
0.00156238
0.00164256
0.00171156
0.00176932
0.00181431
0.00184453
0.0018571
0.00184916
0.00181938
0.00176929
0.00170615
0.00164666
0.00161626
0.00162485
0.0016661
0.00171156
0.00174466
0.00176077
0.00176227
0.00175124
0.00172801
0.00168776
0.00162309
0.00153223
0.00141961
0.001287
0.00109923
0.00074302
3.13612e-05
2.57621e-05
0.000637062
0.000991231
0.00120673
0.00134944
0.00146032
0.00155434
0.00163651
0.00170892
0.00177218
0.00182491
0.00186506
0.00188893
0.00189215
0.00187212
0.00182729
0.00176114
0.00168434
0.00162045
0.00159884
0.00162354
0.00167417
0.00172204
0.00175264
0.00176241
0.00175865
0.00173807
0.00169975
0.00163775
0.00154993
0.00144
0.00130926
0.00112227
0.000766064
3.22431e-05
2.53774e-05
0.000628731
0.000982466
0.00119823
0.00134134
0.00145255
0.00154704
0.00163036
0.00170522
0.00177254
0.00183264
0.00188273
0.0019188
0.00193522
0.00192776
0.00189373
0.00183352
0.00175212
0.00166545
0.00160479
0.0015975
0.00163445
0.001689
0.00173364
0.00175808
0.00175944
0.00174438
0.0017083
0.00164826
0.00156326
0.00145668
0.00132875
0.00114335
0.00078755
3.31484e-05
2.52365e-05
0.000625535
0.000975773
0.00119017
0.0013326
0.00144356
0.00153811
0.00162186
0.001698
0.00176847
0.00183342
0.00189311
0.00194135
0.00197124
0.00197677
0.00195651
0.00190705
0.00183143
0.00173741
0.00164785
0.00159902
0.00160601
0.00165244
0.00170529
0.0017431
0.00175844
0.00174948
0.00171794
0.00165961
0.00157608
0.00147151
0.00134524
0.00116066
0.00080495
3.39835e-05
2.52526e-05
0.000625494
0.000975217
0.00118659
0.00132651
0.00143577
0.00152908
0.00161216
0.00168871
0.00176156
0.00183186
0.00189858
0.001959
0.00200104
0.00201913
0.0020099
0.00197144
0.00190493
0.00181436
0.00171395
0.00163406
0.00160763
0.00163014
0.00167855
0.00172297
0.00174866
0.00174946
0.00172403
0.00166977
0.0015889
0.00148666
0.00136188
0.00117761
0.00082081
3.47426e-05
2.53213e-05
0.000626312
0.000974345
0.00118158
0.00131836
0.00142547
0.00151681
0.00159812
0.00167407
0.00174847
0.00182343
0.00189791
0.00196598
0.0020228
0.0020529
0.00205376
0.00202542
0.00196669
0.00188102
0.00177833
0.00168243
0.00162683
0.0016289
0.00166253
0.00170562
0.00173679
0.00174513
0.00172415
0.0016743
0.00159679
0.00149716
0.00137365
0.00118911
0.000830999
3.51957e-05
2.52293e-05
0.00062256
0.00096814
0.00117029
0.00130346
0.00140753
0.00149626
0.00157571
0.00165056
0.0017253
0.00180364
0.00188585
0.00196502
0.0020296
0.00207423
0.00208822
0.0020708
0.00202217
0.00194395
0.0018437
0.00173907
0.00166097
0.00163643
0.00165872
0.00169412
0.00172506
0.00173678
0.00172196
0.00167566
0.00160201
0.00150555
0.00138403
0.00120021
0.000841668
3.56712e-05
2.48651e-05
0.000614319
0.000957145
0.0011544
0.0012835
0.00138483
0.00147151
0.00154868
0.00162057
0.00169215
0.0017689
0.00185386
0.001942
0.00202057
0.00207666
0.00210552
0.00210239
0.00206693
0.00200081
0.00190799
0.00179847
0.0017021
0.00165687
0.00165958
0.00168877
0.00171888
0.00173207
0.00171996
0.00167736
0.00160689
0.00151276
0.0013928
0.00121019
0.000853982
3.61882e-05
2.42222e-05
0.000594387
0.000940247
0.00113514
0.00126199
0.00136128
0.00144532
0.00151884
0.00158577
0.00165109
0.00172154
0.00180336
0.00189581
0.00198738
0.00206228
0.00210951
0.00212649
0.00210956
0.00205946
0.00197789
0.00186978
0.00175921
0.00168537
0.00166695
0.00168583
0.00171115
0.00172632
0.00171772
0.00167861
0.00161096
0.00151919
0.00140139
0.00122117
0.000868727
3.69013e-05
2.35034e-05
0.000568359
0.000918618
0.00111244
0.00123759
0.00133479
0.00141638
0.00148676
0.00154927
0.00160827
0.00167051
0.00174446
0.00183426
0.0019336
0.0020258
0.00209521
0.00213394
0.00214132
0.00211381
0.00205131
0.00195459
0.00183806
0.00173636
0.00168655
0.0016862
0.00170617
0.00172012
0.00171432
0.00167946
0.00161596
0.00152741
0.0014119
0.00123392
0.000884316
3.77341e-05
2.22127e-05
0.000543334
0.00089545
0.00108976
0.0012142
0.00131026
0.00139022
0.00145831
0.00151766
0.00157195
0.00162714
0.0016919
0.00177377
0.001872
0.00197357