/*--------------------------------*- C++ -*----------------------------------*\
  =========                 |
  \\      /  F ield         | OpenFOAM: The Open Source CFD Toolbox
   \\    /   O peration     | Website:  https://openfoam.org
    \\  /    A nd           | Version:  11
     \\/     M anipulation  |
\*---------------------------------------------------------------------------*/
FoamFile
{
    format      ascii;
    class       volScalarField;
    location    "750";
    object      nut;
}
// * * * * * * * * * * * * * * * * * * * * * * * * * * * * * * * * * * * * * //

dimensions      [0 2 -1 0 0 0 0];

internalField   nonuniform List<scalar> 
78750
(
9.13868e-09
1.76714e-06
1.98912e-05
2.17301e-05
2.22597e-05
2.33349e-05
2.3635e-05
2.37173e-05
2.39062e-05
2.42005e-05
2.46649e-05
2.51237e-05
2.56413e-05
2.62615e-05
2.68837e-05
2.75661e-05
2.80336e-05
2.96634e-05
3.06462e-05
3.03415e-05
2.94927e-05
3.06924e-05
3.32118e-05
3.30636e-05
3.35101e-05
3.38609e-05
3.37657e-05
3.31417e-05
3.21643e-05
3.07614e-05
2.96755e-05
2.9558e-05
2.58817e-05
5.17636e-06
3.61721e-08
2.55998e-09
6.19115e-07
7.06789e-06
8.76169e-06
1.16771e-05
1.66187e-05
2.30224e-05
2.85092e-05
3.21938e-05
3.43312e-05
3.69818e-05
3.92719e-05
4.04517e-05
4.2788e-05
4.46389e-05
4.65824e-05
4.86662e-05
4.69163e-05
5.19068e-05
6.23631e-05
6.31391e-05
6.05624e-05
5.79869e-05
5.48139e-05
5.34244e-05
5.13457e-05
3.68458e-05
3.60324e-05
3.93078e-05
3.12084e-05
2.58098e-05
2.33153e-05
2.04066e-05
3.33255e-06
1.87545e-08
2.11998e-09
5.45957e-07
4.87736e-06
9.59123e-06
1.87393e-05
3.33758e-05
4.53184e-05
5.27572e-05
5.76349e-05
6.04538e-05
6.24509e-05
6.38032e-05
6.50772e-05
6.58321e-05
6.62964e-05
6.64907e-05
6.62578e-05
6.42624e-05
5.67717e-05
5.36683e-05
5.67414e-05
5.69777e-05
5.38028e-05
5.0278e-05
4.76592e-05
4.06082e-05
3.16775e-05
3.45814e-05
3.44066e-05
2.3469e-05
1.87208e-05
1.6607e-05
1.50969e-05
1.89292e-06
8.83777e-09
3.03401e-09
7.90105e-07
7.09876e-06
1.80738e-05
3.54363e-05
5.0149e-05
5.93484e-05
6.55545e-05
6.95458e-05
7.16649e-05
7.25917e-05
7.24707e-05
7.16071e-05
7.00729e-05
6.79712e-05
6.54559e-05
6.2735e-05
6.00353e-05
5.7026e-05
5.19464e-05
4.67334e-05
4.31836e-05
4.01558e-05
3.75053e-05
3.48093e-05
2.95802e-05
3.10314e-05
3.0879e-05
2.33147e-05
1.89456e-05
1.48696e-05
1.23241e-05
1.10898e-05
1.23904e-06
5.21871e-09
4.3715e-09
1.1185e-06
8.0613e-06
2.10857e-05
3.99863e-05
5.51977e-05
6.35568e-05
6.80243e-05
7.03106e-05
7.14053e-05
7.12396e-05
7.01461e-05
6.83659e-05
6.58878e-05
6.29025e-05
5.95592e-05
5.60339e-05
5.23272e-05
4.83551e-05
4.53673e-05
4.34786e-05
4.13376e-05
3.89469e-05
3.69179e-05
3.43647e-05
2.90575e-05
2.89389e-05
3.12101e-05
2.3341e-05
1.62122e-05
1.21781e-05
9.93721e-06
8.64933e-06
9.29172e-07
3.86419e-09
5.50421e-09
1.39635e-06
1.02521e-05
2.81116e-05
5.04597e-05
6.43277e-05
7.14785e-05
7.52141e-05
7.66264e-05
7.65324e-05
7.52624e-05
7.31731e-05
7.04246e-05
6.71985e-05
6.36352e-05
5.98637e-05
5.60198e-05
5.20983e-05
4.78573e-05
4.37986e-05
4.09585e-05
3.89517e-05
3.72665e-05
3.58868e-05
3.27522e-05
2.79554e-05
2.84582e-05
2.86909e-05
2.11146e-05
1.50323e-05
1.08563e-05
8.56732e-06
7.95511e-06
8.24923e-07
3.33457e-09
6.66715e-09
1.67504e-06
1.09321e-05
2.97531e-05
5.25476e-05
6.57198e-05
7.18145e-05
7.45382e-05
7.50505e-05
7.4257e-05
7.24715e-05
6.99732e-05
6.68157e-05
6.31993e-05
5.9332e-05
5.53949e-05
5.14598e-05
4.78663e-05
4.51593e-05
4.30541e-05
4.10074e-05
3.88973e-05
3.69635e-05
3.55041e-05
3.31792e-05
2.96307e-05
2.65414e-05
2.72003e-05
2.22364e-05
1.40668e-05
9.77701e-06
7.77889e-06
7.44125e-06
7.8787e-07
3.16596e-09
7.34679e-09
1.83449e-06
1.21643e-05
3.34263e-05
5.69752e-05
6.95345e-05
7.52243e-05
7.74849e-05
7.74696e-05
7.61486e-05
7.396e-05
7.11305e-05
6.76194e-05
6.36896e-05
5.95706e-05
5.54538e-05
5.14184e-05
4.75911e-05
4.43095e-05
4.1647e-05
3.9208e-05
3.71825e-05
3.56069e-05
3.39468e-05
3.13239e-05
2.82923e-05
2.95025e-05
2.78781e-05
1.999e-05
1.35111e-05
9.03497e-06
7.18339e-06
7.45924e-06
7.75729e-07
3.06485e-09
8.47004e-09
2.09734e-06
1.26452e-05
3.4639e-05
5.82628e-05
7.00844e-05
7.51497e-05
7.6915e-05
7.65312e-05
7.48675e-05
7.20682e-05
6.85518e-05
6.4645e-05
6.05539e-05
5.64745e-05
5.25771e-05
4.90661e-05
4.61255e-05
4.35879e-05
4.14027e-05
3.95606e-05
3.8014e-05
3.6759e-05
3.50913e-05
3.24128e-05
2.92494e-05
2.96734e-05
2.72794e-05
1.93527e-05
1.28252e-05
8.53858e-06
6.90566e-06
7.98781e-06
7.3042e-07
2.89544e-09
9.02779e-09
2.22503e-06
1.33692e-05
3.65895e-05
6.04477e-05
7.19793e-05
7.67805e-05
7.82445e-05
7.7591e-05
7.55789e-05
7.26141e-05
6.90883e-05
6.5078e-05
6.08232e-05
5.66037e-05
5.26324e-05
4.90726e-05
4.58892e-05
4.29212e-05
4.02277e-05
3.80631e-05
3.64805e-05
3.52977e-05
3.38537e-05
3.1565e-05
2.91119e-05
3.00146e-05
2.7064e-05
1.87163e-05
1.24225e-05
8.42736e-06
6.94063e-06
8.27965e-06
7.20239e-07
2.88083e-09
1.0229e-08
2.49912e-06
1.38414e-05
3.76665e-05
6.13547e-05
7.23067e-05
7.67022e-05
7.78452e-05
7.70329e-05
7.48814e-05
7.17011e-05
6.78352e-05
6.36217e-05
5.93684e-05
5.51727e-05
5.11785e-05
4.75355e-05
4.44039e-05
4.18847e-05
3.99833e-05
3.83966e-05
3.7034e-05
3.59515e-05
3.44394e-05
3.2061e-05
2.97276e-05
3.06471e-05
2.72937e-05
1.90097e-05
1.26948e-05
8.53015e-06
7.07543e-06
9.09808e-06
7.89614e-07
3.11214e-09
1.07881e-08
2.62392e-06
1.44064e-05
3.90112e-05
6.27311e-05
7.35119e-05
7.77374e-05
7.86533e-05
7.75869e-05
7.52318e-05
7.20127e-05
6.83107e-05
6.43104e-05
6.00573e-05
5.57704e-05
5.16842e-05
4.79696e-05
4.4756e-05
4.1972e-05
3.94356e-05
3.73953e-05
3.60112e-05
3.48666e-05
3.30543e-05
3.11576e-05
3.07283e-05
3.23085e-05
2.6847e-05
1.79722e-05
1.20295e-05
8.31657e-06
7.14868e-06
9.53089e-06
7.72912e-07
3.01882e-09
1.20733e-08
2.91043e-06
1.49846e-05
4.02568e-05
6.36289e-05
7.38577e-05
7.77631e-05
7.84773e-05
7.73128e-05
7.49478e-05
7.1759e-05
6.78968e-05
6.36041e-05
5.93032e-05
5.51528e-05
5.11213e-05
4.72874e-05
4.38225e-05
4.08608e-05
3.84846e-05
3.67581e-05
3.56725e-05
3.46299e-05
3.26737e-05
3.07577e-05
3.23798e-05
3.1118e-05
2.41138e-05
1.73872e-05
1.16306e-05
8.17608e-06
7.31334e-06
1.02053e-05
7.76503e-07
3.03394e-09
1.26112e-08
3.02768e-06
1.54803e-05
4.13264e-05
6.46009e-05
7.46773e-05
7.84435e-05
7.89946e-05
7.76681e-05
7.51673e-05
7.19208e-05
6.82232e-05
6.42682e-05
6.01285e-05
5.59338e-05
5.18129e-05
4.78671e-05
4.42809e-05
4.11983e-05
3.85681e-05
3.63305e-05
3.44664e-05
3.30928e-05
3.15368e-05
3.01411e-05
3.18357e-05
3.02102e-05
2.35785e-05
1.74924e-05
1.19619e-05
8.41359e-06
7.50822e-06
1.06494e-05
7.93898e-07
3.12792e-09
1.3884e-08
3.30487e-06
1.61155e-05
4.26188e-05
6.5459e-05
7.50647e-05
7.86131e-05
7.90878e-05
7.77826e-05
7.53554e-05
7.21858e-05
6.85258e-05
6.45788e-05
6.05123e-05
5.64195e-05
5.23132e-05
4.82322e-05
4.43808e-05
4.09179e-05
3.7951e-05
3.55419e-05
3.37207e-05
3.24011e-05
3.11696e-05
3.01924e-05
3.18374e-05
2.98324e-05
2.31525e-05
1.72725e-05
1.20509e-05
8.56185e-06
7.66584e-06
1.11713e-05
8.15003e-07
3.14658e-09
1.43546e-08
3.40576e-06
1.65234e-05
4.34373e-05
6.61539e-05
7.56422e-05
7.91036e-05
7.9507e-05
7.81579e-05
7.57288e-05
7.26021e-05
6.90427e-05
6.52269e-05
6.12929e-05
5.73336e-05
5.34067e-05
4.95299e-05
4.57111e-05
4.20188e-05
3.8654e-05
3.5708e-05
3.32057e-05
3.11723e-05
2.98818e-05
2.92871e-05
3.05386e-05
2.82101e-05
2.159e-05
1.57514e-05
1.11493e-05
8.43506e-06
8.10395e-06
1.25455e-05
8.1095e-07
3.11776e-09
1.55292e-08
3.65706e-06
1.70979e-05
4.46146e-05
6.69795e-05
7.61082e-05
7.94465e-05
7.98743e-05
7.86407e-05
7.63692e-05
7.33962e-05
6.99609e-05
6.61786e-05
6.21878e-05
5.8101e-05
5.40247e-05
5.00554e-05
4.62472e-05
4.25391e-05
3.88436e-05
3.52585e-05
3.2154e-05
2.97876e-05
2.81848e-05
2.76224e-05
2.8939e-05
2.67407e-05
2.05729e-05
1.51198e-05
1.08505e-05
8.44581e-06
8.47618e-06
1.34369e-05
8.20501e-07
3.22597e-09
1.59161e-08
3.73805e-06
1.74095e-05
4.51873e-05
6.75188e-05
7.66895e-05
8.01163e-05
8.06605e-05
7.95555e-05
7.74176e-05
7.45709e-05
7.12433e-05
6.75646e-05
6.36569e-05
5.96049e-05
5.54874e-05
5.14007e-05
4.74532e-05
4.36787e-05
4.0013e-05
3.63544e-05
3.26723e-05
2.93263e-05
2.7206e-05
2.68155e-05
2.85759e-05
2.62785e-05
2.04533e-05
1.56533e-05
1.13696e-05
8.62562e-06
8.33021e-06
1.28927e-05
8.61183e-07
3.46101e-09
1.69477e-08
3.95446e-06
1.79379e-05
4.6015e-05
6.81204e-05
7.73006e-05
8.09055e-05
8.17076e-05
8.08873e-05
7.90349e-05
7.64463e-05
7.33156e-05
6.97658e-05
6.59059e-05
6.18279e-05
5.7623e-05
5.33923e-05
4.92447e-05
4.52287e-05
4.13294e-05
3.7513e-05
3.38049e-05
3.03396e-05
2.74432e-05
2.55553e-05
2.64617e-05
2.47403e-05
1.97695e-05
1.56872e-05
1.17541e-05
8.95684e-06
8.61477e-06
1.37589e-05
8.91576e-07
3.47863e-09
1.71616e-08
3.99828e-06
1.81795e-05
4.62678e-05
6.83942e-05
7.77885e-05
8.16422e-05
8.26748e-05
8.20669e-05
8.04216e-05
7.80291e-05
7.50731e-05
7.16792e-05
6.79411e-05
6.394e-05
5.97598e-05
5.54993e-05
5.12664e-05
4.71048e-05
4.29936e-05
3.88896e-05
3.48222e-05
3.09522e-05
2.73761e-05
2.45039e-05
2.37376e-05
2.13901e-05
1.72777e-05
1.39238e-05
1.11295e-05
9.35392e-06
9.78605e-06
1.63423e-05
9.09181e-07
3.53984e-09
1.79258e-08
4.13468e-06
1.83594e-05
4.60649e-05
6.84288e-05
7.8237e-05
8.23289e-05
8.36056e-05
8.3252e-05
8.18577e-05
7.96903e-05
7.69182e-05
7.36443e-05
6.99554e-05
6.59372e-05
6.16868e-05
5.73177e-05
5.2947e-05
4.8624e-05
4.43363e-05
4.00608e-05
3.57962e-05
3.15523e-05
2.71535e-05
2.33553e-05
2.16685e-05
1.91222e-05
1.554e-05
1.28617e-05
1.07227e-05
9.57981e-06
1.05202e-05
1.68678e-05
9.39245e-07
3.71727e-09
1.82253e-08
4.18504e-06
1.85252e-05
4.63218e-05
6.86504e-05
7.86577e-05
8.31073e-05
8.47306e-05
8.46693e-05
8.35171e-05
8.155e-05
7.89208e-05
7.57426e-05
7.21133e-05
6.81318e-05
6.39036e-05
5.95416e-05
5.51472e-05
5.07549e-05
4.63742e-05
4.20523e-05
3.77868e-05
3.33249e-05
2.79444e-05
2.29388e-05
2.10762e-05
1.85511e-05
1.50205e-05
1.27367e-05
1.06976e-05
9.41108e-06
1.0181e-05
1.66541e-05
9.9919e-07
4.02861e-09
1.88217e-08
4.29568e-06
1.8528e-05
4.55689e-05
6.84619e-05
7.91374e-05
8.40284e-05
8.60126e-05
8.62659e-05
8.53976e-05
8.3683e-05
8.12538e-05
7.82183e-05
7.46797e-05
7.0747e-05
6.6534e-05
6.21676e-05
5.77713e-05
5.33993e-05
4.90563e-05
4.47833e-05
4.05818e-05
3.60653e-05
2.98195e-05
2.34539e-05
2.07625e-05
1.77728e-05
1.41826e-05
1.2127e-05
1.03834e-05
9.25593e-06
1.01435e-05
1.70027e-05
1.02377e-06
4.05683e-09
1.9174e-08
4.36949e-06
1.83309e-05
4.52329e-05
6.84284e-05
7.95361e-05
8.47655e-05
8.70296e-05
8.74916e-05
8.67731e-05
8.51617e-05
8.27956e-05
7.97955e-05
7.62934e-05
7.24125e-05
6.82393e-05
6.39087e-05
5.95856e-05
5.53167e-05
5.11809e-05
4.71835e-05
4.32871e-05
3.89091e-05
3.20004e-05
2.44035e-05
2.01643e-05
1.62749e-05
1.27972e-05
1.10065e-05
9.89785e-06
9.47991e-06
1.10718e-05
1.83986e-05
1.04416e-06
4.10139e-09
1.97519e-08
4.51336e-06
1.81754e-05
4.42427e-05
6.81374e-05
7.99657e-05
8.55301e-05
8.79685e-05
8.84975e-05
8.78067e-05
8.61885e-05
8.37776e-05
8.07009e-05
7.71502e-05
7.32628e-05
6.90106e-05
6.46704e-05
6.04879e-05
5.64973e-05
5.26015e-05
4.89764e-05
4.5484e-05
4.13407e-05
3.40638e-05
2.57986e-05
2.10638e-05
1.64047e-05
1.22418e-05
1.02265e-05
9.40973e-06
9.55162e-06
1.16985e-05
1.83965e-05
1.08188e-06
4.39223e-09
2.04428e-08
4.68594e-06
1.79434e-05
4.35616e-05
6.79749e-05
8.03471e-05
8.61924e-05
8.88535e-05
8.94863e-05
8.88362e-05
8.71987e-05
8.47053e-05
8.14812e-05
7.77988e-05
7.37414e-05
6.91732e-05
6.44416e-05
6.05916e-05
5.74535e-05
5.46435e-05
5.17222e-05
4.85358e-05
4.44417e-05
3.69048e-05
2.77962e-05
2.28767e-05
1.80482e-05
1.29901e-05
1.0456e-05
9.45617e-06
9.4094e-06
1.11506e-05
1.74551e-05
1.14007e-06
4.78602e-09
2.21469e-08
5.02654e-06
1.8193e-05
4.36682e-05
6.82204e-05
8.09011e-05
8.70422e-05
8.9934e-05
9.06203e-05
8.98832e-05
8.80372e-05
8.52298e-05
8.15134e-05
7.66543e-05
7.13547e-05
6.72067e-05
6.46106e-05
6.22127e-05
5.98724e-05
5.74964e-05
5.49179e-05
5.1981e-05
4.78733e-05
4.00089e-05
3.00443e-05
2.45054e-05
2.00261e-05
1.39715e-05
1.06211e-05
9.3738e-06
9.08236e-06
1.07906e-05
1.75843e-05
1.17912e-06
4.81129e-09
2.42237e-08
5.43188e-06
1.85126e-05
4.4231e-05
6.8665e-05
8.10032e-05
8.70204e-05
8.99289e-05
9.05461e-05
8.96277e-05
8.73782e-05
8.39661e-05
7.96225e-05
7.49205e-05
7.04731e-05
6.67486e-05
6.41351e-05
6.27013e-05
6.20278e-05
6.12138e-05
5.95347e-05
5.66696e-05
5.18385e-05
4.34624e-05
3.29707e-05
2.6245e-05
2.0471e-05
1.38591e-05
1.02773e-05
9.10679e-06
9.18909e-06
1.14368e-05
1.87498e-05
1.20567e-06
4.81662e-09
2.65479e-08
5.87687e-06
1.89555e-05
4.50417e-05
6.92552e-05
8.11175e-05
8.68065e-05
8.94179e-05
8.96797e-05
8.83708e-05
8.56534e-05
8.16309e-05
7.66121e-05
7.1458e-05
6.6589e-05
6.29454e-05
6.12133e-05
6.15866e-05
6.34234e-05
6.53789e-05
6.55472e-05
6.23933e-05
5.57442e-05
4.63036e-05
3.60413e-05
2.87554e-05
2.05964e-05
1.3503e-05
1.00923e-05
8.97291e-06
9.42558e-06
1.23758e-05
1.86518e-05
1.2337e-06
4.92833e-09
2.82152e-08
6.05809e-06
1.95508e-05
4.64986e-05
7.0252e-05
8.14564e-05
8.67534e-05
8.88794e-05
8.87399e-05
8.69392e-05
8.32764e-05
7.82686e-05
7.32009e-05
6.77017e-05
6.26359e-05
5.92238e-05
5.82794e-05
5.99963e-05
6.3975e-05
6.863e-05
7.05388e-05
6.71227e-05
6.04799e-05
5.17772e-05
4.16929e-05
3.36553e-05
2.31648e-05
1.4584e-05
1.04632e-05
8.99244e-06
9.49044e-06
1.24735e-05
1.84679e-05
1.27504e-06
5.2557e-09
3.00035e-08
6.26662e-06
2.03727e-05
4.83019e-05
7.13531e-05
8.1708e-05
8.63081e-05
8.76817e-05
8.69773e-05
8.39556e-05
8.00084e-05
7.56541e-05
6.98026e-05
6.37181e-05
5.88945e-05
5.6367e-05
5.67522e-05
6.01495e-05
6.5921e-05
7.20565e-05
7.4226e-05
7.01717e-05
6.38123e-05
5.61674e-05
4.69322e-05
3.96791e-05
2.80876e-05
1.71016e-05
1.15713e-05
9.51915e-06
9.47625e-06
1.16374e-05
1.88126e-05
1.3709e-06
5.607e-09
3.1301e-08
6.44699e-06
2.11269e-05
4.9766e-05
7.2013e-05
8.15263e-05
8.5384e-05
8.59424e-05
8.42731e-05
8.18515e-05
7.83712e-05
7.28438e-05
6.63361e-05
6.03936e-05
5.60486e-05
5.41424e-05
5.52466e-05
5.97075e-05
6.71275e-05
7.51277e-05
7.80379e-05
7.39082e-05
6.80778e-05
6.10144e-05
5.10227e-05
4.16088e-05
2.92886e-05
1.88311e-05
1.27469e-05
9.75488e-06
9.34116e-06
1.23326e-05
1.94718e-05
1.41559e-06
5.72065e-09
3.24378e-08
6.61989e-06
2.18094e-05
5.118e-05
7.25663e-05
8.11808e-05
8.41875e-05
8.42555e-05
8.26598e-05
7.97674e-05
7.52175e-05
6.97937e-05
6.4006e-05
5.83826e-05
5.40678e-05
5.19511e-05
5.27985e-05
5.7228e-05
6.49554e-05
7.36779e-05
7.74293e-05
7.40776e-05
6.91298e-05
6.27912e-05
5.28072e-05
4.0842e-05
2.78635e-05
1.81519e-05
1.26901e-05
1.02118e-05
1.03257e-05
1.42325e-05
1.85795e-05
1.43077e-06
5.76472e-09
3.28383e-08
6.6818e-06
2.20355e-05
5.16188e-05
7.24289e-05
8.04058e-05
8.30133e-05
8.27711e-05
8.07602e-05
7.73411e-05
7.31817e-05
6.83458e-05
6.29747e-05
5.74279e-05
5.24514e-05
4.94631e-05
4.95961e-05
5.3188e-05
6.00993e-05
6.83357e-05
7.25182e-05
7.25434e-05
7.04187e-05
6.43638e-05
5.49554e-05
4.16849e-05
2.82363e-05
1.84961e-05
1.29195e-05
1.05884e-05
1.0905e-05
1.49938e-05
1.8523e-05
1.52435e-06
6.1349e-09
3.30162e-08
6.70228e-06
2.21444e-05
5.16594e-05
7.1944e-05
7.94942e-05
8.17808e-05
8.13815e-05
7.95554e-05
7.66317e-05
7.27621e-05
6.8011e-05
6.26541e-05
5.71114e-05
5.19289e-05
4.79925e-05
4.65873e-05
4.9099e-05
5.56379e-05
6.42941e-05
7.04042e-05
7.2222e-05
7.08077e-05
6.48716e-05
5.662e-05
4.40435e-05
3.08011e-05
2.07224e-05
1.41587e-05
1.11608e-05
1.13101e-05
1.53573e-05
1.95629e-05
1.63527e-06
6.70562e-09
3.30675e-08
6.72741e-06
2.22092e-05
5.15875e-05
7.17311e-05
7.92621e-05
8.16095e-05
8.13275e-05
7.95178e-05
7.66988e-05
7.29248e-05
6.83317e-05
6.30062e-05
5.72275e-05
5.17433e-05
4.74772e-05
4.53219e-05
4.6041e-05
5.09508e-05
5.962e-05
6.70519e-05
7.10753e-05
7.15251e-05
6.63593e-05
5.80103e-05
4.50592e-05
3.2071e-05
2.24213e-05
1.57462e-05
1.21291e-05
1.1743e-05
1.58869e-05
1.96551e-05
1.72831e-06
7.02357e-09
3.33986e-08
6.75813e-06
2.22507e-05
5.11402e-05
7.13691e-05
7.91444e-05
8.15975e-05
8.13987e-05
7.97586e-05
7.70167e-05
7.34813e-05
6.89813e-05
6.38282e-05
5.81701e-05
5.23761e-05
4.72119e-05
4.37572e-05
4.32951e-05
4.62864e-05
5.2979e-05
6.1035e-05
6.71592e-05
7.00648e-05
6.7532e-05
5.74172e-05
4.35856e-05
3.14339e-05
2.22584e-05
1.61839e-05
1.2968e-05
1.30085e-05
1.81674e-05
1.91217e-05
1.78974e-06
7.27854e-09
3.35549e-08
6.776e-06
2.2131e-05
5.01634e-05
7.01922e-05
7.83209e-05
8.10557e-05
8.11396e-05
7.96349e-05
7.69132e-05
7.33425e-05
6.93117e-05
6.47653e-05
5.95639e-05
5.38255e-05
4.80801e-05
4.33418e-05
4.07918e-05
4.15055e-05
4.58368e-05
5.22722e-05
5.92157e-05
6.40918e-05
6.35665e-05
5.53513e-05
4.28198e-05
3.1023e-05
2.20411e-05
1.63718e-05
1.36678e-05
1.4169e-05
1.95783e-05
1.91663e-05
1.87297e-06
7.60955e-09
3.34127e-08
6.77084e-06
2.18308e-05
4.96206e-05
6.99523e-05
7.83319e-05
8.14049e-05
8.13488e-05
7.94597e-05
7.68585e-05
7.37393e-05
7.02655e-05
6.63264e-05
6.19136e-05
5.69075e-05
5.12917e-05
4.55373e-05
4.07736e-05
3.83601e-05
3.90715e-05
4.29898e-05
4.93575e-05
5.69027e-05
5.91444e-05
5.22488e-05
4.20417e-05
3.17086e-05
2.2937e-05
1.70295e-05
1.42128e-05
1.47587e-05
2.0279e-05
2.01403e-05
2.00646e-06
8.41552e-09
3.312e-08
6.74348e-06
2.13587e-05
4.85968e-05
6.95952e-05
7.82833e-05
8.12824e-05
8.14975e-05
8.02819e-05
7.80352e-05
7.49901e-05
7.12985e-05
6.72262e-05
6.29923e-05
5.86333e-05
5.40107e-05
4.89799e-05
4.37839e-05
3.92845e-05
3.68453e-05
3.73343e-05
4.12846e-05
4.91192e-05
5.29149e-05
4.82989e-05
4.11593e-05
3.25325e-05
2.4471e-05
1.83446e-05
1.50048e-05
1.51286e-05
2.03401e-05
2.19602e-05
2.15458e-06
9.16498e-09
3.2827e-08
6.70537e-06
2.08804e-05
4.78018e-05
6.87357e-05
7.76478e-05
8.12105e-05
8.20574e-05
8.11527e-05
7.90135e-05
7.59106e-05
7.21111e-05
6.79702e-05
6.38352e-05
5.98967e-05
5.61124e-05
5.2024e-05
4.73258e-05
4.24575e-05
3.82162e-05
3.57632e-05
3.64287e-05
4.2114e-05
4.64307e-05
4.37554e-05
3.88541e-05
3.19025e-05
2.48172e-05
1.91401e-05
1.57632e-05
1.58209e-05
2.12865e-05
2.22949e-05
2.27271e-06
9.50947e-09
3.24296e-08
6.67171e-06
2.05725e-05
4.67535e-05
6.81505e-05
7.78145e-05
8.17961e-05
8.27493e-05
8.1794e-05
7.95721e-05
7.63909e-05
7.24752e-05
6.81856e-05
6.3932e-05
5.99593e-05
5.63918e-05
5.31633e-05
4.97387e-05
4.56544e-05
4.11645e-05
3.70831e-05
3.4997e-05
3.78246e-05
4.06817e-05
3.88862e-05
3.54918e-05
2.98782e-05
2.39951e-05
1.92107e-05
1.65353e-05
1.7195e-05
2.34394e-05
2.20053e-05
2.41071e-06
1.00059e-08
3.24424e-08
6.6454e-06
2.0167e-05
4.61536e-05
6.84414e-05
7.85299e-05
8.25896e-05
8.34622e-05
8.23638e-05
7.99797e-05
7.66095e-05
7.24478e-05
6.78834e-05
6.33975e-05
5.98908e-05
5.70027e-05
5.43176e-05
5.16604e-05
4.83272e-05
4.39435e-05
3.91754e-05
3.56752e-05
3.62456e-05
3.69614e-05
3.484e-05
3.21578e-05
2.76058e-05
2.27493e-05
1.90275e-05
1.72594e-05
1.87757e-05
2.56045e-05
2.18485e-05
2.50899e-06
1.04641e-08
3.2931e-08
6.64444e-06
2.02296e-05
4.64029e-05
6.85122e-05
7.84801e-05
8.25502e-05
8.34578e-05
8.23657e-05
7.99169e-05
7.63792e-05
7.18946e-05
6.69509e-05
6.24425e-05
5.85469e-05
5.57574e-05
5.41492e-05
5.27748e-05
5.07852e-05
4.74316e-05
4.26543e-05
3.8287e-05
3.76594e-05
3.64686e-05
3.31433e-05
3.05931e-05
2.67244e-05
2.23594e-05
1.90134e-05
1.77246e-05
1.97065e-05
2.67364e-05
2.28975e-05
2.68743e-06
1.15862e-08
3.33926e-08
6.65657e-06
2.03895e-05
4.66459e-05
6.84797e-05
7.83428e-05
8.24234e-05
8.33407e-05
8.21905e-05
7.96548e-05
7.59714e-05
7.11684e-05
6.59759e-05
6.10884e-05
5.70508e-05
5.45001e-05
5.33139e-05
5.29769e-05
5.23813e-05
5.03792e-05
4.623e-05
4.1859e-05
4.10469e-05
3.8604e-05
3.36828e-05
3.04639e-05
2.70187e-05
2.31575e-05
1.97095e-05
1.80481e-05
1.95558e-05
2.60701e-05
2.49354e-05
2.82582e-06
1.22829e-08
3.38833e-08
6.69088e-06
2.0597e-05
4.70848e-05
6.87832e-05
7.85296e-05
8.25301e-05
8.3335e-05
8.19517e-05
7.90407e-05
7.50396e-05
7.04479e-05
6.52084e-05
5.98083e-05
5.54872e-05
5.28812e-05
5.19778e-05
5.22802e-05
5.29576e-05
5.24838e-05
4.9607e-05
4.59455e-05
4.49228e-05
4.15139e-05
3.57023e-05
3.15968e-05
2.75792e-05
2.34123e-05
1.99277e-05
1.81614e-05
1.96649e-05
2.6776e-05
2.49304e-05
3.02738e-06
1.28757e-08
3.42701e-08
6.72395e-06
2.08914e-05
4.76653e-05
6.88277e-05
7.81343e-05
8.18186e-05
8.23618e-05
8.12351e-05
7.87608e-05
7.47315e-05
6.93351e-05
6.34137e-05
5.80664e-05
5.39729e-05
5.14942e-05
5.07266e-05
5.13869e-05
5.27346e-05
5.35006e-05
5.19535e-05
4.91445e-05
4.73892e-05
4.3128e-05
3.698e-05
3.19744e-05
2.73867e-05
2.3219e-05
1.99985e-05
1.8736e-05
2.10804e-05
2.9302e-05
2.39454e-05
3.12524e-06
1.32809e-08
3.43581e-08
6.74388e-06
2.1141e-05
4.81022e-05
6.86802e-05
7.76946e-05
8.13564e-05
8.19578e-05
8.04592e-05
7.73073e-05
7.29793e-05
6.78215e-05
6.23403e-05
5.71012e-05
5.28412e-05
5.01016e-05
4.90679e-05
4.95582e-05
5.1001e-05
5.234e-05
5.19636e-05
5.03724e-05
4.85774e-05
4.42277e-05
3.79975e-05
3.21657e-05
2.70644e-05
2.30175e-05
2.03504e-05
1.97532e-05
2.27348e-05
3.09978e-05
2.33935e-05
3.28076e-06
1.39957e-08
3.43658e-08
6.75665e-06
2.11482e-05
4.80416e-05
6.85919e-05
7.74319e-05
8.06689e-05
8.08174e-05
7.90626e-05
7.60266e-05
7.18823e-05
6.69203e-05
6.15396e-05
5.63108e-05
5.19679e-05
4.90342e-05
4.77288e-05
4.79031e-05
4.8989e-05
5.02368e-05
5.12645e-05
5.16212e-05
5.08069e-05
4.6201e-05
3.93338e-05
3.31637e-05
2.77181e-05
2.34146e-05
2.07444e-05
2.03459e-05
2.34575e-05
3.17967e-05
2.42236e-05
3.4965e-06
1.51376e-08
3.40928e-08
6.70984e-06
2.1094e-05
4.81038e-05
6.83705e-05
7.67061e-05
7.96233e-05
7.96944e-05
7.80493e-05
7.51996e-05
7.13628e-05
6.65451e-05
6.1141e-05
5.58601e-05
5.13232e-05
4.80729e-05
4.64177e-05
4.63596e-05
4.75055e-05
4.90425e-05
5.04162e-05
5.25125e-05
5.12522e-05
4.62899e-05
4.14106e-05
3.59884e-05
3.03266e-05
2.52511e-05
2.16801e-05
2.07305e-05
2.37195e-05
3.22559e-05
2.61524e-05
3.67586e-06
1.61797e-08
3.37422e-08
6.65945e-06
2.10525e-05
4.79616e-05
6.78076e-05
7.60464e-05
7.90851e-05
7.93043e-05
7.78493e-05
7.51488e-05
7.12443e-05
6.633e-05
6.08545e-05
5.54739e-05
5.08749e-05
4.75603e-05
4.57755e-05
4.55372e-05
4.65543e-05
4.8082e-05
4.94788e-05
5.17259e-05
5.0637e-05
4.6182e-05
4.22683e-05
3.7741e-05
3.24852e-05
2.70913e-05
2.29219e-05
2.13995e-05
2.44672e-05
3.43728e-05
2.55727e-05
3.86037e-06
1.67499e-08
3.3424e-08
6.61571e-06
2.08872e-05
4.76164e-05
6.76262e-05
7.60153e-05
7.90826e-05
7.92649e-05
7.76543e-05
7.47356e-05
7.07154e-05
6.57776e-05
6.0304e-05
5.49066e-05
5.0277e-05
4.69448e-05
4.51574e-05
4.49362e-05
4.60616e-05
4.77807e-05
4.88463e-05
5.01336e-05
4.89675e-05
4.50402e-05
4.13332e-05
3.72158e-05
3.25706e-05
2.77597e-05
2.39977e-05
2.31252e-05
2.75849e-05
3.81363e-05
2.51516e-05
3.98644e-06
1.73679e-08
3.31019e-08
6.56586e-06
2.0783e-05
4.74583e-05
6.73348e-05
7.55966e-05
7.8591e-05
7.87868e-05
7.72747e-05
7.45094e-05
7.05933e-05
6.56338e-05
5.99976e-05
5.43511e-05
4.94812e-05
4.59879e-05
4.4119e-05
4.38417e-05
4.49171e-05
4.6675e-05
4.78332e-05
4.85468e-05
4.72899e-05
4.3712e-05
3.9767e-05
3.55639e-05
3.15036e-05
2.78112e-05
2.5286e-05
2.56473e-05
3.15272e-05
4.10551e-05
2.39775e-05
4.09578e-06
1.7882e-08
3.25713e-08
6.49435e-06
2.05509e-05
4.68041e-05
6.66289e-05
7.50333e-05
7.8126e-05
7.8366e-05
7.68267e-05
7.39846e-05
6.99791e-05
6.49484e-05
5.9235e-05
5.34488e-05
4.83909e-05
4.47421e-05
4.27992e-05
4.25074e-05
4.36186e-05
4.55241e-05
4.68933e-05
4.7286e-05
4.5998e-05
4.27274e-05
3.85668e-05
3.42732e-05
3.04846e-05
2.76886e-05
2.64372e-05
2.81105e-05
3.47428e-05
4.31222e-05
2.4032e-05
4.25292e-06
1.85369e-08
3.20416e-08
6.415e-06
2.03855e-05
4.6596e-05
6.64877e-05
7.49451e-05
7.80445e-05
7.82558e-05
7.66711e-05
7.37838e-05
6.97363e-05
6.46373e-05
5.88501e-05
5.28806e-05
4.74875e-05
4.35304e-05
4.14816e-05
4.11284e-05
4.21765e-05
4.42175e-05
4.60397e-05
4.716e-05
4.6083e-05
4.26428e-05
3.8504e-05
3.41499e-05
3.03574e-05
2.78341e-05
2.72111e-05
2.96462e-05
3.64053e-05
4.42953e-05
2.49007e-05
4.50084e-06
1.99804e-08
3.13491e-08
6.31511e-06
2.01961e-05
4.62806e-05
6.6206e-05
7.47534e-05
7.79265e-05
7.82052e-05
7.66885e-05
7.38852e-05
6.99248e-05
6.48536e-05
5.88444e-05
5.26239e-05
4.70786e-05
4.28081e-05
4.02066e-05
3.96117e-05
4.08294e-05
4.31757e-05
4.64164e-05
4.76787e-05
4.54857e-05
4.26154e-05
3.92804e-05
3.52447e-05
3.13394e-05
2.85216e-05
2.77529e-05
3.01627e-05
3.71449e-05
4.54255e-05
2.68313e-05
4.70335e-06
2.13749e-08
3.05894e-08
6.21648e-06
2.00092e-05
4.58613e-05
6.57503e-05
7.44193e-05
7.77447e-05
7.81814e-05
7.68261e-05
7.416e-05
7.02787e-05
6.52109e-05
5.90852e-05
5.25689e-05
4.66388e-05
4.20214e-05
3.92756e-05
3.85351e-05
3.95535e-05
4.19159e-05
4.56557e-05
4.67222e-05
4.47728e-05
4.31583e-05
4.05908e-05
3.69152e-05
3.28264e-05
2.95419e-05
2.82301e-05
3.03036e-05
3.73794e-05
4.65477e-05
2.78724e-05
4.9344e-06
2.21874e-08
2.99649e-08
6.12973e-06
1.99116e-05
4.57404e-05
6.56401e-05
7.4436e-05
7.79421e-05
7.85444e-05
7.72832e-05
7.46552e-05
7.07696e-05
6.56274e-05
5.95686e-05
5.29718e-05
4.65947e-05
4.16513e-05
3.86102e-05
3.75294e-05
3.83348e-05
4.05619e-05
4.41986e-05
4.54484e-05
4.38885e-05
4.2778e-05
4.08336e-05
3.77149e-05
3.38551e-05
3.04375e-05
2.90517e-05
3.14715e-05
3.94822e-05
4.88122e-05
2.76833e-05
5.07337e-06
2.29862e-08
2.9457e-08
6.05142e-06
1.98586e-05
4.5656e-05
6.55097e-05
7.44224e-05
7.81045e-05
7.8871e-05
7.77447e-05
7.52281e-05
7.14409e-05
6.63825e-05
6.01208e-05
5.30909e-05
4.63232e-05
4.08704e-05
3.75111e-05
3.64257e-05
3.72926e-05
3.94662e-05
4.25264e-05
4.36681e-05
4.2642e-05
4.16005e-05
3.99532e-05
3.7456e-05
3.43023e-05
3.15259e-05
3.08054e-05
3.41455e-05
4.30128e-05
5.04914e-05
2.76646e-05
5.16764e-06
2.35751e-08
2.88764e-08
5.97851e-06
1.9825e-05
4.54858e-05
6.52385e-05
7.43238e-05
7.82513e-05
7.92402e-05
7.82876e-05
7.58461e-05
7.2025e-05
6.68067e-05
6.03199e-05
5.3027e-05
4.58208e-05
4.00365e-05
3.64972e-05
3.53835e-05
3.6357e-05
3.86137e-05
4.10635e-05
4.20206e-05
4.13788e-05
4.01846e-05
3.85574e-05
3.66495e-05
3.4594e-05
3.29975e-05
3.3273e-05
3.73926e-05
4.61164e-05
5.18295e-05
2.73671e-05
5.25549e-06
2.40496e-08
2.8349e-08
5.92037e-06
1.98333e-05
4.54348e-05
6.5084e-05
7.4275e-05
7.83563e-05
7.94809e-05
7.85877e-05
7.61515e-05
7.2305e-05
6.70635e-05
6.05457e-05
5.31341e-05
4.56731e-05
3.93176e-05
3.53245e-05
3.41189e-05
3.5269e-05
3.77622e-05
4.00943e-05
4.10826e-05
4.06342e-05
3.91909e-05
3.75054e-05
3.6022e-05
3.48452e-05
3.43653e-05
3.56064e-05
4.00245e-05
4.81139e-05
5.29056e-05
2.76486e-05
5.40493e-06
2.47581e-08
2.76683e-08
5.84235e-06
1.97532e-05
4.52146e-05
6.48261e-05
7.41625e-05
7.84069e-05
7.96635e-05
7.8842e-05
7.64325e-05
7.26201e-05
6.74868e-05
6.11642e-05
5.38863e-05
4.63067e-05
3.95744e-05
3.47466e-05
3.27112e-05
3.36058e-05
3.65268e-05
3.9422e-05
4.08531e-05
4.05484e-05
3.89061e-05
3.69741e-05
3.54811e-05
3.47045e-05
3.49468e-05
3.70432e-05
4.22791e-05
5.03065e-05
5.39953e-05
2.82486e-05
5.58234e-06
2.5636e-08
2.70768e-08
5.76454e-06
1.96205e-05
4.48677e-05
6.44837e-05
7.39762e-05
7.83541e-05
7.96853e-05
7.88799e-05
7.64623e-05
7.27077e-05
6.78029e-05
6.19199e-05
5.5121e-05
4.7655e-05
4.04257e-05
3.48483e-05
3.1939e-05
3.20805e-05
3.47236e-05
3.82002e-05
4.04466e-05
4.05901e-05
3.89646e-05
3.6835e-05
3.5195e-05
3.45392e-05
3.52273e-05
3.80122e-05
4.38825e-05
5.20542e-05
5.50402e-05
2.86054e-05
5.73905e-06
2.65277e-08
2.64255e-08
5.68298e-06
1.94483e-05
4.45258e-05
6.41679e-05
7.38017e-05
7.82951e-05
7.96695e-05
7.88394e-05
7.63807e-05
7.26585e-05
6.80154e-05
6.27188e-05
5.67485e-05
4.99237e-05
4.25285e-05
3.57648e-05
3.14099e-05
3.03501e-05
3.23932e-05
3.61855e-05
3.94833e-05
4.05036e-05
3.9402e-05
3.73076e-05
3.54657e-05
3.46834e-05
3.5493e-05
3.85359e-05
4.46369e-05
5.29012e-05
5.59214e-05
2.92471e-05
5.90624e-06
2.77361e-08
2.57584e-08
5.60186e-06
1.92464e-05
4.42672e-05
6.39989e-05
7.36885e-05
7.81987e-05
7.95176e-05
7.85936e-05
7.59643e-05
7.21662e-05
6.7725e-05
6.30514e-05
5.80691e-05
5.22469e-05
4.53476e-05
3.83228e-05
3.24272e-05
2.94183e-05
2.99738e-05
3.36235e-05
3.77177e-05
3.97629e-05
3.97839e-05
3.81125e-05
3.61161e-05
3.50244e-05
3.55854e-05
3.84991e-05
4.46391e-05
5.324e-05
5.67274e-05
2.99114e-05
6.06647e-06
2.88489e-08
2.52196e-08
5.51211e-06
1.89888e-05
4.41206e-05
6.40979e-05
7.36591e-05
7.79464e-05
7.90852e-05
7.79579e-05
7.51507e-05
7.12611e-05
6.70196e-05
6.3014e-05
5.92452e-05
5.50167e-05
4.92836e-05
4.19054e-05
3.48516e-05
2.98427e-05
2.82067e-05
3.06877e-05
3.49307e-05
3.8045e-05
3.95617e-05
3.86749e-05
3.6806e-05
3.54387e-05
3.57301e-05
3.86527e-05
4.51913e-05
5.43157e-05
5.76638e-05
3.01573e-05
6.19462e-06
2.96601e-08
2.48427e-08
5.43058e-06
1.87996e-05
4.37627e-05
6.35777e-05
7.30765e-05
7.71823e-05
7.77865e-05
7.62235e-05
7.32394e-05
6.93352e-05
6.53585e-05
6.20942e-05
5.95716e-05
5.69522e-05
5.28709e-05
4.64565e-05
3.85377e-05
3.17311e-05
2.80083e-05
2.86903e-05
3.19917e-05
3.54881e-05
3.83583e-05
3.86693e-05
3.72129e-05
3.59322e-05
3.62478e-05
3.94399e-05
4.655e-05
5.60405e-05
5.87319e-05
3.03042e-05
6.32694e-06
3.04924e-08
2.47045e-08
5.37245e-06
1.86892e-05
4.37711e-05
6.33685e-05
7.25412e-05
7.64131e-05
7.67721e-05
7.46785e-05
7.07752e-05
6.62339e-05
6.23666e-05
5.99146e-05
5.87716e-05
5.79673e-05
5.59656e-05
5.11595e-05
4.35403e-05
3.52878e-05
2.94119e-05
2.80667e-05
2.96693e-05
3.26435e-05
3.63289e-05
3.79864e-05
3.75721e-05
3.67331e-05
3.73239e-05
4.08545e-05
4.83603e-05
5.77527e-05
5.94739e-05
3.04782e-05
6.43776e-06
3.12602e-08
2.47198e-08
5.31166e-06
1.88917e-05
4.46459e-05
6.38005e-05
7.2281e-05
7.54472e-05
7.51591e-05
7.24315e-05
6.78792e-05
6.29917e-05
5.9397e-05
5.80035e-05
5.83649e-05
5.9313e-05
5.90688e-05
5.57707e-05
4.88062e-05
3.99416e-05
3.24079e-05
2.89082e-05
2.85809e-05
3.05218e-05
3.42176e-05
3.67846e-05
3.7424e-05
3.74022e-05
3.86023e-05
4.26941e-05
5.05143e-05
5.94122e-05
5.99132e-05
3.03224e-05
6.53273e-06
3.19578e-08
2.47863e-08
5.2808e-06
1.91585e-05
4.55536e-05
6.3957e-05
7.16753e-05
7.46007e-05
7.33654e-05
6.91189e-05
6.35531e-05
5.86327e-05
5.5938e-05
5.59749e-05
5.82469e-05
6.10604e-05
6.24695e-05
6.05199e-05
5.42273e-05
4.50812e-05
3.63002e-05
3.03474e-05
2.81897e-05
2.95465e-05
3.27187e-05
3.56289e-05
3.713e-05
3.80395e-05
4.0048e-05
4.48268e-05
5.28174e-05
6.10169e-05
6.02438e-05
3.01584e-05
6.5808e-06
3.23734e-08
2.46953e-08
5.30309e-06
1.96295e-05
4.5801e-05
6.37288e-05
7.12172e-05
7.28576e-05
7.01392e-05
6.48345e-05
5.8804e-05
5.42917e-05
5.27299e-05
5.43125e-05
5.82151e-05
6.29085e-05
6.5937e-05