/*--------------------------------*- C++ -*----------------------------------*\
  =========                 |
  \\      /  F ield         | OpenFOAM: The Open Source CFD Toolbox
   \\    /   O peration     | Website:  https://openfoam.org
    \\  /    A nd           | Version:  11
     \\/     M anipulation  |
\*---------------------------------------------------------------------------*/
FoamFile
{
    format      ascii;
    class       volScalarField;
    location    "750";
    object      omega;
}
// * * * * * * * * * * * * * * * * * * * * * * * * * * * * * * * * * * * * * //

dimensions      [0 0 -1 0 0 0 0];

internalField   nonuniform List<scalar> 
78750
(
1021.41
113.81
22.8869
22.8962
22.9042
22.912
22.9192
22.9254
22.9309
22.9357
22.9402
22.9443
22.9482
22.9517
22.955
22.958
22.9608
22.9634
22.9657
22.9679
22.9699
22.9716
22.973
22.9743
22.9752
22.976
22.9764
22.9764
22.9764
22.9764
22.9764
22.9774
22.9884
114.972
1072.79
1020.8
113.623
4.73491
4.97433
5.35493
5.72698
6.03345
6.27322
6.45996
6.60506
6.72002
6.80707
6.86335
6.9027
6.92124
6.92183
6.91113
6.89014
6.85785
6.81611
6.76367
6.69488
6.61098
6.51968
6.4287
6.3486
6.27684
6.22735
6.22584
6.26744
6.40974
6.64673
6.60955
115.349
1078.56
1020.76
113.618
4.73781
5.34328
5.98669
6.46567
6.7942
7.0256
7.18913
7.29937
7.36179
7.38797
7.389
7.37177
7.33338
7.27785
7.2063
7.12035
7.02043
6.90681
6.78965
6.6725
6.55247
6.43038
6.31065
6.19462
6.07863
5.97663
5.90277
5.86679
5.88259
5.93688
5.7911
115.967
1080.6
1020.86
113.686
4.96816
5.9006
6.48971
6.83952
7.06137
7.21071
7.31225
7.37923
7.41936
7.43618
7.43304
7.40851
7.36516
7.30425
7.22562
7.131
7.02284
6.90302
6.76917
6.61929
6.46341
6.30509
6.14906
5.99404
5.84871
5.72699
5.62892
5.56405
5.54402
5.51358
5.16992
116.509
1082.03
1020.91
113.714
5.19635
6.27027
6.82013
7.14327
7.35941
7.51262
7.61966
7.6884
7.72345
7.72795
7.71007
7.66351
7.59282
7.49963
7.3876
7.25869
7.11412
6.95541
6.78718
6.613
6.4344
6.25533
6.07969
5.90519
5.73791
5.59318
5.47205
5.37643
5.31527
5.22933
4.81487
116.867
1082.85
1020.97
113.75
5.56169
6.5408
7.02602
7.31269
7.50476
7.6369
7.72387
7.77396
7.79241
7.78465
7.7501
7.69277
7.61454
7.51691
7.40103
7.26829
7.12008
6.95764
6.78428
6.60285
6.41734
6.23161
6.04489
5.85399
5.66732
5.50328
5.35905
5.23725
5.14919
5.0663
4.9319
117.189
1083.51
1020.99
113.762
5.81398
6.765
7.23704
7.51928
7.71105
7.84474
7.93363
7.98488
8.00291
7.993
7.95465
7.89086
7.80337
7.69375
7.56345
7.41383
7.24718
7.06704
6.87633
6.67724
6.47173
6.26434
6.06
5.85727
5.65816
5.47698
5.3178
5.17477
5.05501
4.953
4.89403
117.392
1083.9
1021.03
113.78
5.98701
6.90749
7.36005
7.63202
7.81624
7.94242
8.0233
8.06594
8.07499
8.05659
8.00914
7.93676
7.84175
7.72584
7.59072
7.43798
7.26887
7.08557
6.89041
6.68596
6.47654
6.26499
6.05193
5.83504
5.62695
5.44171
5.27161
5.11464
4.98805
4.91103
4.92373
117.61
1084.3
1021.04
113.787
6.18973
7.09254
7.53752
7.80709
7.9911
8.11774
8.19904
8.2417
8.25024
8.2306
8.18104
8.10543
8.00557
7.88349
7.74155
7.58272
7.40948
7.2237
7.02738
6.82213
6.60911
6.38922
6.16317
5.9312
5.70512
5.49668
5.29912
5.11391
4.95341
4.80157
4.11143
117.815
1084.66
1021.06
113.8
6.30889
7.19914
7.6372
7.90314
8.08399
8.20692
8.28376
8.32122
8.32409
8.29872
8.24278
8.1609
8.05542
7.92879
7.78371
7.62307
7.4496
7.2656
7.07326
6.87397
6.6686
6.45627
6.23308
5.9961
5.76196
5.54517
5.3349
5.1325
4.96112
4.82418
4.11639
117.938
1084.87
1021.08
113.806
6.49603
7.36886
7.79988
8.06332
8.24324
8.36554
8.44144
8.47713
8.47707
8.44761
8.38643
8.29848
8.18629
8.05259
7.9005
7.73351
7.5547
7.36745
7.17488
6.97844
6.77865
6.57403
6.35953
6.13011
5.8958
5.66879
5.44505
5.22205
5.02231
4.88785
4.11789
117.975
1084.93
1021.1
113.817
6.59721
7.46183
7.88938
8.15141
8.33011
8.45082
8.52456
8.55743
8.55422
8.51798
8.45176
8.35854
8.24101
8.10215
7.94552
7.77516
7.59457
7.40677
7.215
7.02159
6.82743
6.62924
6.42058
6.20287
5.98734
5.76798
5.53188
5.29989
5.08904
4.90821
4.12437
118.12
1085.2
1021.11
113.824
6.77318
7.61744
8.03719
8.29663
8.47446
8.59471
8.66781
8.69949
8.69422
8.65439
8.58308
8.48341
8.35828
8.21104
8.04548
7.86592
7.67641
7.4813
7.28525
7.09123
6.89941
6.70533
6.50199
6.2925
6.08004
5.84988
5.59381
5.33946
5.12255
4.94935
4.13019
118.241
1085.39
1021.13
113.832
6.86029
7.69925
8.11792
8.37785
8.55633
8.67704
8.75027
8.78169
8.7757
8.73469
8.66139
8.55848
8.42943
8.27718
8.10582
7.92045
7.72597
7.52776
7.33095
7.13869
6.95206
6.76863
6.5823
6.39336
6.19954
5.98227
5.72722
5.44354
5.18135
4.97467
4.13095
118.258
1085.42
1021.15
113.839
7.01866
7.83793
8.24979
8.50815
8.6868
8.80827
8.88242
8.91474
8.90947
8.86908
8.79574
8.69132
8.55781
8.39813
8.21666
8.01952
7.81145
7.59881
7.38866
7.18635
6.99426
6.81152
6.63397
6.46161
6.28987
6.10081
5.8775
5.61263
5.32092
5.05653
4.1336
118.321
1085.55
1021.16
113.845
7.08981
7.90785
8.32147
8.58255
8.76399
8.88813
8.96478
8.99946
8.99635
8.95864
8.88796
8.7865
8.6561
8.4987
8.31681
8.11416
7.89644
7.67261
7.45018
7.23573
7.03199
6.83883
6.65427
6.47779
6.30379
6.11705
5.90579
5.66684
5.39501
5.0981
4.14116
118.464
1085.79
1021.17
113.851
7.22564
8.02948
8.43931
8.70065
8.88376
9.01016
9.08943
9.127
9.12685
9.09307
9.02557
8.92702
8.79891
8.64288
8.46108
8.25644
8.03217
7.7933
7.54996
7.31691
7.09952
6.89707
6.70492
6.52019
6.33332
6.12881
5.90755
5.66782
5.40409
5.11632
4.14458
118.518
1085.85
1021.18
113.855
7.28577
8.09358
8.50771
8.77319
8.96025
9.09058
9.17391
9.21569
9.2199
9.19026
9.12746
9.03374
8.91036
8.75861
8.58018
8.37748
8.15348
7.91259
7.66249
7.41448
7.1865
6.98414
6.80761
6.64775
6.48394
6.28749
6.0365
5.74655
5.44855
5.15378
4.14472
118.521
1085.85
1021.19
113.859
7.40489
8.20324
8.61567
8.88241
9.07196
9.20561
9.29294
9.33929
9.34859
9.32401
9.26677
9.17842
9.05983
8.91182
8.73547
8.53242
8.30461
8.05515
7.79014
7.51882
7.25572
7.02563
6.83898
6.69427
6.56559
6.42582
6.24311
5.9855
5.65334
5.28169
4.14519
118.541
1085.91
1021.2
113.861
7.45095
8.25739
8.67622
8.94867
9.1439
9.28357
9.3774
9.43069
9.44738
9.43033
9.38132
9.30137
9.19108
9.0509
8.88138
8.68347
8.45824
8.20748
7.93498
7.64612
7.34964
7.0617
6.80971
6.62769
6.50046
6.39202
6.25394
6.06598
5.77593
5.36671
4.1514
118.649
1086.1
1021.2
113.862
7.53533
8.34304
8.76532
9.04172
9.24185
9.3875
9.48835
9.54962
9.57503
9.56777
9.5292
9.46017
9.36103
9.23183
9.0727
8.88406
8.6665
8.42131
8.15127
7.85984
7.55114
7.23137
6.91504
6.63682
6.42867
6.28686
6.17985
6.0373
5.79632
5.4022
4.15472
118.697
1086.14
1021.2
113.86
7.57474
8.39026
8.81996
9.10333
9.31038
9.46335
9.57226
9.64248
9.67776
9.68095
9.65369
9.59668
9.51004
9.39355
9.24694
9.07015
8.86338
8.62764
8.36567
8.08142
7.77903
7.45974
7.12548
6.80098
6.5198
6.31004
6.17297
6.03277
5.80268
5.43985
4.15496
118.699
1086.14
1021.2
113.857
7.64396
8.46746
8.90339
9.19135
9.40345
9.56259
9.67887
9.75764
9.80255
9.81622
9.80047
9.75586
9.68222
9.57893
9.44517
9.28022
9.08353
8.85542
8.59767
8.31366
8.00804
7.68175
7.33406
6.98837
6.68009
6.4271
6.24658
6.08842
5.86581
5.48322
4.1555
118.715
1086.18
1021.2
113.853
7.68217
8.51468
8.95895
9.25408
9.47315
9.6396
9.76385
9.85143
9.90591
9.93019
9.92605
9.8942
9.83416
9.74511
9.62581
9.47498
9.29159
9.0753
8.82688
8.54815
8.24124
7.90236
7.52419
7.12914
6.76669
6.47476
6.27609
6.1281
5.91794
5.52284
4.16036
118.806
1086.33
1021.19
113.848
7.74949
8.59215
9.04452
9.34442
9.5678
9.73916
9.86922
9.96369
10.026
10.0592
10.0651
10.0455
9.99829
9.92306
9.81802
9.68153
9.51248
9.31074
9.0773
8.81407
8.52226
8.19365
7.80961
7.37848
6.94643
6.56464
6.2992
6.13323
5.92294
5.5325
4.16188
118.822
1086.33
1021.19
113.847
7.81684
8.66265
9.12094
9.42525
9.65276
9.82832
9.9629
10.0626
10.1308
10.1709
10.1851
10.1749
10.1387
10.0755
9.98286
9.85853
9.70132
9.51116
9.28947
9.03905
8.76287
8.45533
8.09761
7.68834
7.25379
6.81921
6.45471
6.20246
5.97714
5.60496
4.9169
118.812
1086.28
1021.19
113.849
7.94442
8.7752
9.23204
9.53705
9.76517
9.94136
10.0769
10.1782
10.2491
10.2935
10.3137
10.311
10.2845
10.2322
10.1528
10.0426
9.89797
9.71718
9.50126
9.25301
8.97533
8.66497
8.30783
7.9063
7.48729
7.05967
6.65974
6.34221
6.06966
5.67784
4.9642
118.816
1086.3
1021.21
113.858
8.07703
8.8805
9.32929
9.63234
9.86074
10.0379
10.1747
10.2775
10.3506
10.3985
10.4245
10.4301
10.4181
10.3859
10.3298
10.2422
10.1158
9.94717
9.73821
9.49411
9.21137
8.88458
8.50374
8.07722
7.63661
7.19801
6.79434
6.45798
6.14858
5.71682
4.97135
118.887
1086.46
1021.23
113.869
8.22572
9.00072
9.43857
9.73617
9.96069
10.1342
10.2672
10.366
10.4355
10.4808
10.5065
10.516
10.5138
10.4983
10.4651
10.4077
10.3182
10.1893
10.0153
9.78858
9.50101
9.14615
8.7243
8.24429
7.73922
7.24315
6.82648
6.50758
6.19681
5.74091
4.97923
118.931
1086.51
1021.25
113.882
8.34794
9.09611
9.52115
9.8127
10.0335
10.2038
10.3332
10.4277
10.4924
10.5329
10.5551
10.5632
10.562
10.5545
10.5356
10.502
10.4441
10.3559
10.2327
10.0648
9.83667
9.53014
9.12321
8.61504
8.04273
7.44329
6.92051
6.54609
6.23134
5.78683
5.03914
118.919
1086.47
1021.28
113.897
8.47447
9.18954
9.59755
9.88003
10.0946
10.2594
10.3829
10.4708
10.5287
10.5597
10.5698
10.5707
10.5685
10.5666
10.5679
10.5587
10.5236
10.457
10.358
10.2186
10.0284
9.77731
9.4491
9.0318
8.5144
7.87212
7.22688
6.73481
6.35816
5.8964
5.14458
118.92
1086.47
1021.31
113.908
8.55473
9.24317
9.63854
9.91514
10.1261
10.2877
10.4075
10.4899
10.5378
10.5616
10.5685
10.5665
10.563
10.5647
10.57
10.5731
10.5629
10.5257
10.4486
10.3267
10.153
9.92393
9.63163
9.26393
8.79999
8.20387
7.52338
6.92611
6.46513
5.9592
5.18351
118.957
1086.59
1021.33
113.917
8.62109
9.28581
9.66955
9.94044
10.148
10.3067
10.422
10.4975
10.5393
10.5536
10.5482
10.5327
10.5197
10.5206
10.5372
10.5581
10.5634
10.5424
10.4853
10.3775
10.2117
9.98395
9.68821
9.31151
8.83455
8.25056
7.61619
7.03621
6.54363
5.99996
5.19249
119.068
1086.78
1021.34
113.921
8.64332
9.29971
9.67921
9.94787
10.1538
10.3111
10.4261
10.5013
10.5408
10.551
10.54
10.5158
10.4899
10.4763
10.485
10.5127
10.5384
10.5403
10.5067
10.4258
10.2844
10.0765
9.79172
9.41148
8.90981
8.29342
7.64974
7.09042
6.61443
6.07034
5.26798
119.095
1086.78
1021.34
113.921
8.66224
9.31568
9.69296
9.96008
10.1648
10.3207
10.4334
10.5059
10.542
10.5465
10.5264
10.492
10.4523
10.4238
10.4205
10.4447
10.4846
10.5117
10.5071
10.4588
10.3608
10.2009
9.965
9.63322
9.17095
8.56401
7.87601
7.24683
6.72796
6.1696
5.37555
119.094
1086.76
1021.35
113.924
8.6735
9.32672
9.70308
9.96911
10.1726
10.327
10.4376
10.5065
10.5385
10.5375
10.507
10.4486
10.3841
10.335
10.3215
10.3417
10.3869
10.4329
10.4544
10.4362
10.3679
10.2439
10.0546
9.78075
9.38777
8.84809
8.1815
7.48951
6.88388
6.28064
5.46942
119.099
1086.78
1021.36
113.925
8.68047
9.33959
9.71599
9.98151
10.1848
10.3404
10.4531
10.5241
10.554
10.5466
10.5077
10.4434
10.3618
10.2743
10.2035
10.1948
10.2361
10.2933
10.337
10.3423
10.2988
10.1975
10.0312
9.78086
9.42412
8.94497
8.34476
7.67734
7.03589
6.39706
5.5612
119.161
1086.9
1021.36
113.922
8.67502
9.34111
9.72409
9.99248
10.1978
10.3572
10.476
10.5559
10.5964
10.5997
10.5652
10.4939
10.392
10.2737
10.1616
10.0743
10.044
10.0901
10.1503
10.1886
10.1782
10.1058
9.96207
9.73209
9.39718
8.94691
8.39263
7.77681
7.14963
6.49868
5.64934
119.195
1086.93
1021.35
113.914
8.6589
9.33691
9.72807
10.0044
10.217
10.3819
10.5075
10.5987
10.6567
10.6804
10.669
10.618
10.5244
10.3905
10.2292
10.07
9.95241
9.88934
9.9128
9.96481
9.9968
9.97588
9.88193
9.69611
9.39775
8.97635
8.45355
7.86975
7.26482
6.62007
5.77973
119.184
1086.89
1021.34
113.908
8.64846
9.33759
9.73748
10.0201
10.2392
10.4113
10.5435
10.6401
10.7055
10.7413
10.7468
10.7191
10.6534
10.5457
10.3948
10.2041
9.99866
9.83462
9.74158
9.73755
9.77396
9.79156
9.76119
9.64828
9.42504
9.0818
8.60205
8.02906
7.42021
6.76533
5.9227
119.172
1086.86
1021.33
113.903
8.64291
9.34347
9.75237
10.0417
10.2669
10.4457
10.5867
10.6946
10.7735
10.826
10.8519
10.8478
10.8081
10.7256
10.5949
10.4139
10.1931
9.94965
9.7329
9.60564
9.57026
9.57851
9.58185
9.54183
9.40925
9.14123
8.7379
8.19239
7.56998
6.89486
6.03755
119.175
1086.88
1021.32
113.9
8.64269
9.35507
9.7725
10.0667
10.2952
10.4774
10.6227
10.7366
10.8216
10.8819
10.92
10.9342
10.92
10.8666
10.7628
10.606
10.3965
10.1432
9.865
9.60892
9.44545
9.37738
9.36507
9.35642
9.29702
9.12927
8.79395
8.3095
7.70461
7.0267
6.15916
119.22
1086.96
1021.32
113.9
8.65861
9.38258
9.80629
10.104
10.3358
10.5213
10.6693
10.7851
10.872
10.9364
10.9824
11.0098
11.0136
10.9877
10.9238
10.8111
10.636
10.3932
10.0933
9.76888
9.48017
9.28694
9.18218
9.13697
9.10012
9.00499
8.77493
8.35586
7.78575
7.11987
6.25162
119.243
1086.98
1021.32
113.904
8.68928
9.41064
9.83653
10.1374
10.3715
10.5578
10.7054
10.8201
10.9058
10.9701
11.0197
11.0576
11.085
11.0985
11.0859
11.028
10.9094
10.7178
10.4461
10.1039
9.74197
9.42699
9.20065
9.06487
8.96695
8.86274
8.68517
8.35789
7.86126
7.23578
6.39205
119.225
1086.93
1021.34
113.913
8.71966
9.43863
9.86525
10.1678
10.4033
10.5905
10.7384
10.8525
10.9368
10.9981
11.0427
11.0794
11.1139
11.1442
11.1589
11.1416
11.0706
10.9363
10.7267
10.4373
10.0947
9.74775
9.42587
9.16373
8.98961
8.86201
8.68433
8.38415
7.93555
7.33754
6.51039
119.207
1086.9
1021.35
113.919
8.74582
9.45629
9.87964
10.1818
10.4176
10.6046
10.7512
10.8626
10.9428
11.0006
11.0442
11.0808
11.1152
11.1477
11.1724
11.1784
11.1538
11.0664
10.9102
10.6781
10.3844
10.0598
9.72531
9.41695
9.16124
8.94083
8.7269
8.4425
8.01843
7.44014
6.62402
119.209
1086.91
1021.37
113.927
8.76053
9.46001
9.88127
10.1837
10.4202
10.6081
10.7552
10.866
10.9442
10.9958
11.0304
11.0566
11.0833
11.1164
11.1529
11.1787
11.1742
11.125
11.0098
10.8193
10.5614
10.2575
9.92879
9.61129
9.33324
9.08789
8.83692
8.52099
8.08337
7.50717
6.68863
119.262
1087.02
1021.38
113.933
8.76182
9.4569
9.87498
10.1769
10.4137
10.6013
10.7466
10.8546
10.9294
10.9781
11.0082
11.028
11.0465
11.0717
11.1062
11.1425
11.1626
11.1446
11.0644
10.9085
10.677
10.383
10.0478
9.71177
9.41653
9.1678
8.91786
8.5982
8.15653
7.58455
6.7756
119.289
1087.05
1021.39
113.935
8.74849
9.43722
9.85332
10.1547
10.392
10.5813
10.7296
10.841
10.9191
10.9699
11.0003
11.0175
11.0303
11.0474
11.075
11.1112
11.1441
11.1534
11.1197
11.0182
10.8376
10.5762
10.2393
9.86238
9.50439
9.2055
8.9436
8.64354
8.22825
7.67907
6.89299
119.274
1087.01
1021.39
113.938
8.72614
9.41566
9.8323
10.1351
10.3745
10.5656
10.715
10.8264
10.9038
10.9533
10.9808
10.9931
10.998
11.0047
11.0213
11.051
11.0891
11.1213
11.1276
11.0898
10.9858
10.7984
10.5188
10.162
9.76733
9.38672
9.04451
8.70848
8.29799
7.76511
7.00255
119.261
1086.97
1021.4
113.94
8.69954
9.3905
9.80834
10.1122
10.3522
10.5437
10.6935
10.8055
10.8842
10.9353
10.9649
10.9789
10.984
10.9872
10.995
11.0115
11.0359
11.0618
11.0772
11.0671
11.0121
10.8957
10.7004
10.4194
10.0646
9.66719
9.26045
8.85536
8.40669
7.86957
7.1123
119.263
1086.98
1021.4
113.942
8.67478
9.36952
9.78851
10.092
10.331
10.5211
10.6694
10.7798
10.8569
10.9068
10.9356
10.9496
10.9554
10.9599
10.9678
10.981
10.9974
11.0124
11.0192
11.0088
10.969
10.8843
10.739
10.5289
10.2394
9.87738
9.46012
9.01183
8.52369
7.97404
7.21
119.288
1087.04
1021.41
113.947
8.64808
9.34533
9.76595
10.0708
10.3107
10.5013
10.6494
10.7589
10.8345
10.8825
10.909
10.9207
10.9248
10.9284
10.9365
10.9491
10.9615
10.9667
10.9614
10.9387
10.8923
10.8163
10.7026
10.5293
10.2976
9.99143
9.60044
9.14288
8.63543
8.07818
7.30485
119.342
1087.13
1021.42
113.95
8.61016
9.31836
9.74497
10.0527
10.2935
10.4834
10.6298
10.7367
10.809
10.8535
10.8767
10.8856
10.8881
10.8924
10.9041
10.9223
10.9397
10.9464
10.932
10.8918
10.8255
10.732
10.612
10.4655
10.2745
10.0177
9.67627
9.24573
8.74473
8.18656
7.40932
119.365
1087.14
1021.42
113.952
8.57241
9.28871
9.72022
10.0314
10.2747
10.4663
10.6132
10.7195
10.7898
10.8309
10.85
10.8544
10.8529
10.8556
10.8704
10.8979
10.9284
10.9474
10.9413
10.9021
10.8296
10.7279
10.5948
10.4348
10.2475
10.0159
9.71258
9.31999
8.84595
8.30608
7.54673
119.358
1087.11
1021.43
113.957
8.53142
9.26079
9.69972
10.0155
10.2618
10.4551
10.6025
10.7078
10.7757
10.813
10.8273
10.8254
10.8174
10.8149
10.8284
10.8634
10.9119
10.9562
10.9777
10.9628
10.9007
10.7876
10.6346
10.4539
10.2545
10.0262
9.74857
9.39181
8.94979
8.43101
7.68966
119.329
1087.04
1021.43
113.96
8.48784
9.23106
9.67855
10.0004
10.2513
10.4479
10.5981
10.7057
10.7725
10.805
10.81
10.7982
10.7784
10.7634
10.7666
10.7966
10.8518
10.9174
10.9718
10.9946
10.9745
10.8969
10.7619
10.5771
10.3544
10.1067
9.81987
9.46922
9.03948
8.53296
7.80588
119.328
1087.04
1021.44
113.963
8.44883
9.20475
9.66049
9.98868
10.2447
10.4458
10.5976
10.7045
10.7713
10.8021
10.8038
10.7873
10.7607
10.7372
10.7294
10.7454
10.7908
10.8564
10.9247
10.9749
10.989
10.957
10.8613
10.7013
10.4845
10.2228
9.91674
9.5543
9.12631
8.63066
7.91303
119.332
1087.06
1021.45
113.969
8.41604
9.18261
9.64584
9.98003
10.241
10.4458
10.6007
10.7096
10.7748
10.803
10.7999
10.769
10.7289
10.6934
10.6779
10.6902
10.7302
10.7897
10.8576
10.9197
10.9611
10.9584
10.9022
10.7793
10.5853
10.3264
10.0083
9.63238
9.20225
8.71001
7.99103
119.358
1087.11
1021.46
113.976
8.3787
9.15734
9.62943
9.97127
10.2391
10.4497
10.6107
10.7236
10.7896
10.8135
10.8019
10.764
10.706
10.6573
10.6344
10.6459
10.6846
10.7368
10.7933
10.848
10.8931
10.915
10.8906
10.8006
10.6407
10.404
10.0913
9.71215
9.28012
8.78612
8.06233
119.377
1087.14
1021.48
113.983
8.34154
9.12898
9.60818
9.95692
10.2318
10.4499
10.6179
10.7374
10.8079
10.8324
10.8153
10.7649
10.6945
10.6176
10.5771
10.5866
10.6346
10.6941
10.7483
10.7931
10.8282
10.8493
10.8433
10.7891
10.6633
10.4563
10.1639
9.79425
9.36412
8.86876
8.14414
119.385
1087.14
1021.49
113.99
8.29309
9.09252
9.58048
9.93738
10.2209
10.4486
10.6269
10.7571
10.8373
10.8679
10.8508
10.7904
10.6992
10.6037
10.5274
10.5191
10.5711
10.6471
10.7147
10.7621
10.7904
10.8027
10.7959
10.756
10.6608
10.4852
10.2192
9.8672
9.44728
8.95629
8.23516
119.388
1087.14
1021.5
113.994
8.24228
9.05252
9.54829
9.91246
10.204
10.4413
10.6314
10.7751
10.87
10.914
10.9061
10.8463
10.7416
10.6133
10.5048
10.4486
10.4894
10.5824
10.6769
10.7445
10.7802
10.7901
10.7795
10.7417
10.66
10.5066
10.2636
9.93122
9.52482
9.04086
8.32305
119.384
1087.13
1021.5
113.998
8.18706
9.00751
9.5108
9.88207
10.1817
10.4291
10.6318
10.7926
10.9068
10.9711
10.9807
10.9317
10.8252
10.6736
10.5116
10.4025
10.3839
10.4762
10.603
10.7074
10.7685
10.7891
10.7794
10.7427
10.6647
10.5287
10.3082
9.99691
9.60605
9.1319
8.4221
119.373
1087.1
1021.51
114.001
8.13571
8.96488
9.47409
9.85087
10.1574
10.4142
10.63
10.807
10.9424
11.0317
11.0674
11.0415
10.9498
10.7956
10.5996
10.4137
10.3217
10.3561
10.4926
10.6374
10.7394
10.7855
10.7892
10.7524
10.6799
10.5545
10.351
10.058
9.68211
9.21953
8.5213
119.369
1087.09
1021.51
114.006
8.09175
8.92748
9.44028
9.82021
10.1311
10.3951
10.6221
10.8162
10.9749
11.0936
11.1625
11.1698
11.1077
10.9706
10.7669
10.5276
10.3276
10.2645
10.3516
10.5181
10.6705
10.7661
10.7934
10.7791
10.7135
10.5932
10.3978
10.1155
9.75069
9.29825
8.6095
119.369
1087.09
1021.52
114.012
8.0557
8.89601
9.41196
9.79408
10.1074
10.3757
10.6109
10.8178
10.9991
11.1473
11.252
11.2981
11.2738
11.1704
10.9871
10.7358
10.4644
10.2745
10.2592
10.3859
10.5634
10.7044
10.7797
10.7823
10.7343
10.6208
10.4313
10.1584
9.80624
9.36625
8.68899
119.378
1087.1
1021.53
114.021
8.02715
8.86557
9.38115
9.76386
10.0784
10.349
10.589
10.8063
11.0026
11.1808
11.3205
11.4055
11.4193
11.3577
11.2091
10.9794
10.6886
10.4069
10.2547
10.2842
10.4414
10.6122
10.7312
10.7785
10.7498
10.6516
10.4681
10.2006
9.85629
9.42412
8.75418
119.387
1087.12
1021.55
114.035
8.02399
8.85147
9.3591
9.73699
10.0485
10.3179
10.56
10.7853
10.9982
11.1947
11.3727
11.4937
11.5442
11.5156
11.4014
11.2026
10.927
10.6149
10.3642
10.2876
10.3641
10.5228
10.6649
10.746
10.7489
10.6693
10.4994
10.2417
9.90673
9.48206
8.81773
119.402
1087.14
1021.59
114.055
8.02102
8.83359
9.33122
9.70292
10.0091
10.2739
10.5152
10.7462
10.9739
11.1963
11.3951
11.5592
11.6441
11.645
11.5617
11.3889
11.1323
10.8169
10.5149
10.3381
10.3521
10.4664
10.6066
10.7061
10.7332
10.6693
10.5131
10.2665
9.94102
9.5224
8.86034
119.424
1087.18
1021.62
114.075
7.99712
8.79242
9.27934
9.64279
9.94196
10.2024
10.4419
10.6759
10.916
11.1622
11.3935
11.5806
11.7083
11.7472
11.6967
11.5559
11.3257
11.0228
10.6972
10.449
10.3731
10.4492
10.5663
10.6666
10.7052
10.6605
10.5169
10.2835
9.96949
9.55931
8.90314
119.436
1087.2
1021.65
114.088
7.95217
8.73322
9.2086
9.56487
9.85941
10.1146
10.347
10.5738
10.8122
11.0703
11.3319
11.5595
11.7188
11.8003
11.7906
11.6889
11.4973
11.2227
10.8889
10.5855
10.4405
10.4522
10.5477
10.6457
10.6896
10.6539
10.522
10.299
9.99296
9.58878
8.93874
119.439
1087.21
1021.67
114.098
7.88397
8.66109
9.13154
9.48353
9.77162
10.017
10.2357
10.4452
10.6672
10.9199
11.1985
11.4673
11.682
11.8148
11.8621
11.8138
11.6709
11.4346
11.1128
10.7715
10.5353
10.4748
10.537
10.6195
10.6701
10.6459
10.5255
10.3121
10.0147
9.61921
8.98053
119.448
1087.21
1021.68
114.1
7.79403
8.57517
9.04377
9.39151
9.67365
9.91057
10.1165
10.3075
10.5061
10.7383
11.0142
11.3114
11.5796
11.777
11.8854
11.9057
11.8282
11.6505
11.3696
11.0199
10.7025
10.5411
10.5421
10.604
10.6487
10.6338
10.5277
10.3277
10.0412
9.65409
9.02509
119.452
1087.21
1021.67
114.093
7.69466
8.48647
8.9569
9.30372
9.58277
9.81401
10.0111
10.1882
10.3657
10.5712
10.8266
11.1257
11.4266
11.6773
11.8475
11.9283
11.9205
11.8157
11.605
11.2966
10.9519
10.6848
10.5781
10.6099
10.6489
10.6356
10.5341
10.3434
10.0657
9.68568
9.06511
119.448
1087.2
1021.66
114.09
7.63021
8.42958
8.90019
9.24337
9.51731
9.74184
9.92931
10.0936
10.2552
10.443
10.6823
10.9765
11.2927
11.5773
11.7915
11.9224
11.9692
11.9285
11.7895
11.5474
11.2291
10.9222
10.7241
10.6544
10.6588
10.6436
10.5546
10.3759
10.1094
9.73994
9.13218
119.433
1087.16
1021.66
114.091
7.58534
8.3919
8.86383
9.20472
9.47306
9.6888
9.86438
10.0132
10.1557
10.3241
10.5508
10.8466
11.1806
11.4956
11.7456
11.9142
12.0025
12.0106
11.9319
11.7538
11.4837
11.1713
10.9109
10.7635
10.7065
10.6647
10.5727
10.4
10.1405
9.77751
9.17678
119.43
1087.16
1021.66
114.096
7.53896
8.35522
8.83077
9.17115
9.43503
9.64198
9.80409
9.93474
10.0547
10.2005
10.414
10.7156
11.0735
11.4204
11.7022
11.8993
12.015
12.0554
12.0198
11.8992
11.6911
11.4187
11.1427
10.9345
10.8103
10.724
10.612
10.4355
10.1821
9.83159
9.2506
119.431
1087.17
1021.67
114.1
7.50257
8.32593
8.80665
9.15006
9.41326
9.61506
9.7658
9.8768
9.96686
10.0758
10.259
10.5579
10.9473
11.34
11.6607
11.8848
12.0183
12.0722
12.0535
11.9613
11.798
11.581
11.3471
11.1405
10.9814
10.8489
10.6992
10.4985
10.2312
9.87023
9.27752
119.448
1087.2
1021.68
114.107
7.46007
8.29483
8.78336
9.13285
9.40102
9.60185
9.74327
9.83509
9.89676
9.96133
10.0894
10.3507
10.756
11.2112
11.6022
11.8815
12.0516
12.1255
12.1152
12.0246
11.8624
11.6545
11.4404
11.2513
11.0939
10.9475
10.779
10.5622
10.2838
9.91805
9.33193
119.448
1087.2
1021.69
114.113
7.41538
8.27019
8.7722
9.1297
9.40024
9.60128
9.74158
9.82827
9.86827
9.89191
9.95172
10.1293
10.4834
10.9645
11.4337
11.7987
12.0468
12.1873
12.2273
12.1728
12.0288
11.8187
11.588
11.3834
11.2167
11.064
10.8883
10.6629
10.3746
10.0004
9.4147
119.395
1087.07
1021.69
114.121
7.38002
8.25664
8.76948
9.1384
9.41659
9.62009
9.75644
9.83287
9.85992
9.86105
9.87832
9.99338
10.2852
10.745
11.2479
11.6754
12.001
12.221
12.34
12.3571
12.2793
12.1067
11.8747
11.6346
11.4233
11.2348
11.0354
10.7939
10.4938
10.1186
9.54639
119.366
1087.02
1021.71
114.138
7.36857
8.25448
8.77948
9.15533
9.43848
9.64467
9.77985
9.84838
9.85748
9.82662
9.7983
9.87114
10.1402
10.596
11.11
11.5675
11.9402
12.2198
12.4018
12.4878
12.4756
12.3643
12.1648
11.9147
11.6625
11.4283
11.194
10.9314
10.6256
10.2464
9.6614
119.372
1087.04
1021.75
114.159
7.36972
8.25709
8.78439
9.1729
9.46605
9.67918
9.81641
9.87982
9.87574
9.82237
9.76273
9.75964
9.989
10.4546
11.0122
11.5138
11.9147
12.2151
12.4215
12.5445
12.5774
12.5135
12.3497
12.1128
11.851
11.5956
11.342
11.0681
10.7484
10.3436
9.71553
119.427
1087.18
1021.78
114.174
7.35795
8.2487
8.78286
9.17696
9.48632
9.71635
9.87022
9.94445
9.94097
9.86902
9.76411
9.71148
9.79505
10.1646
10.7341
11.3181
11.7957
12.1481
12.3941
12.5379
12.5779
12.5293
12.3956
12.1953
11.9562
11.7077
11.4484
11.1615
10.8252
10.3963
9.72468
119.51
1087.35
1021.81
114.188
7.31975
8.21731
8.76162
9.17107
9.49262
9.744
9.91874
10.0134
10.0232
9.95856
9.85274
9.76449
9.77041
9.9851
10.4242
11.0069
11.5721
12.0032
12.2981
12.4753
12.5376
12.507
12.3845
12.1968
11.9822
11.7453
11.4874
11.1966
10.8516
10.4077
9.71501
119.577
1087.46
1021.82
114.193
7.25738
8.16585
8.72274
9.14897
9.49407
9.77121
9.98031
10.111
10.1494
10.0999
9.97986
9.83812
9.7646
9.84973
10.1701
10.659
11.1817
11.6465
12.0319
12.2945
12.4261
12.4364
12.3462
12.186
11.9822
11.7623
11.5126
11.2235
10.875
10.4211
9.71356
119.622
1087.52
1021.83
114.196
7.17984
8.10072
8.66815
9.10763
9.47118
9.77325
10.0183
10.1925
10.2792
10.2752
10.1767
10.0144
9.85174
9.80181
9.94633
10.3217
10.7981
11.2516
11.6368
11.9337
12.1361
12.2257
12.2156
12.1181
11.9646
11.7627
11.5267
11.2435
10.8955
10.4416
9.72714
119.636
1087.52
1021.83
114.198
7.09653
8.03234
8.61176
9.06416
9.44419
9.76824
10.0393
10.2562
10.4011
10.4533
10.4092
10.2671
10.065
9.89025
9.86726
10.0672
10.4574
10.9
11.2949
11.6118
11.8445
11.9859
12.0377
12.0129
11.9122
11.7488
11.5252
11.2497
10.9141
10.4728
9.77549
119.636
1087.51
1021.83
114.198
6.99838
7.94906
8.53909
9.00261
9.39737
9.74174
10.0409
10.294
10.487
10.6073
10.6363
10.5631
10.3832
10.1332
9.94798
9.9426
10.1832
10.579
10.9847
11.3299
11.5942
11.7732
11.8666
11.879
11.8175
11.6866
11.494
11.246
10.9293
10.508
9.8354
119.627
1087.47
1021.82
114.199
6.90597
7.87064
8.46983
8.94203
9.34717
9.70507
10.0228
10.2999
10.5337
10.7075
10.8107
10.8261
10.7395
10.5433
10.2645
10.0429
10.0397
10.2769
10.6545
11.0279
11.335
11.5589
11.6979
11.7544
11.7348
11.6392
11.4757
11.248
10.9514
10.5546
9.92015
119.599
1087.41
1021.83
114.203
6.81319
7.78859
8.39553
8.87531
9.28987
9.6604
9.99524
10.2955
10.5563
10.7718
10.9294
11.0151
11.0144
10.915
10.7082
10.4137
10.1408
10.1392
10.3468
10.7027
11.0481
11.3251
11.5168
11.6217
11.6429
11.59
11.4579
11.2555
10.9807
10.6082
10.0098
119.577
1087.36
1021.83
114.208
6.72638
7.70828
8.31988
8.80516
9.22692
9.60701
9.95475
10.2729
10.5584
10.8053
11.003
11.1401
11.2027
11.18
11.0626
10.8454
10.5477
10.2741
10.2701
10.4707
10.8012
11.1106
11.3484
11.5001
11.5637
11.5447
11.4413
11.2617
11.0069
10.6558
10.0886
119.563
1087.34
1021.84
114.218
6.6429
7.62676
8.24118
8.73094
9.15883
9.54679
9.90452
10.2359
10.54
10.812
11.0462
11.2253
11.3368
11.3696
11.317
11.1715
10.9303
10.6251
10.3798
10.4102
10.6401
10.9413
11.2005
11.3814
11.4772
11.4878
11.4172
11.2613
11.0266
10.6962
10.1573
119.557
1087.33
1021.86
114.227
6.5528
7.53609
8.15245
8.64666
9.08051
9.47541
9.84111
10.1827
10.5012
10.794
11.0548
11.2726
11.4283
11.5113
11.5136
11.4293
11.2491
10.977
10.6739
10.4905
10.5793
10.8145
11.0827
11.2921
11.4139
11.4464
11.3965
11.2599
11.0416
10.729
10.2155
119.552
1087.33
1021.87
114.237
6.45747
7.43886
8.05667
8.55533
8.99507
9.39628
9.76852
10.1178
10.447
10.7553
11.0384
11.284
11.4787
11.6079
11.6629
11.638
11.5253
11.3185
11.0382
10.7682
10.6532
10.7806
10.9812
11.1856
11.3374
11.4035
11.3783
11.2608
11.0614
10.7675
10.2811
119.552
1087.33
1021.89
114.248
6.35879
7.33722
7.95649
8.46015
8.9061
9.31347
9.69179
10.0483
10.3874
10.7094
11.0108
11.2801
11.5025
11.6656
11.7607
11.7831
11.7278
11.5867
11.3624
11.103
10.9048
10.8566
10.9852
11.1638
11.2953
11.3636
11.354
11.2577
11.0742
10.7975
10.3339
119.553
1087.33
1021.91
114.262
6.2617
7.2344
7.85454
8.36362
8.81576
9.22833
9.61117
9.97348
10.322
10.6589
10.9803
11.2732
11.5209
11.7096
11.8312
11.8849
11.8688
11.7767
11.6073
11.3834
11.1748
11.0697
11.0907
11.1893
11.2987
11.363
11.3532
11.2593
11.0876
10.8262
10.3852
119.557
1087.34
1021.93
114.277
6.15999
7.12556
7.74691
8.2623
8.72044
9.1364
9.52038
9.88357
10.2361
10.5842
10.926
11.2466
11.525
11.7434
11.894
11.975
11.9872
11.9289
11.799
11.6118
11.4135
11.2745
11.2378
11.2806
11.3492
11.3866
11.3644
11.2696
11.1017
10.849
10.4252
119.569
1087.36
1021.95
114.293
6.05284
7.01109
7.63421
8.1564
8.62024
9.0384
9.42065
9.77948
10.1281
10.4775
10.8308
11.1743
11.4834
11.736
11.9198
12.0312
12.0711
12.0417
11.9429
11.7865
11.6081
11.464
11.4001
11.4045
11.4391
11.4533
11.4165
11.3128
11.1393
10.8835
10.4575
119.573
1087.37
1021.97
114.308
5.94331
6.8967
7.52347
8.05352
8.52286
8.94222
9.32136
9.67392
10.0156
10.362
10.7207
11.0805
11.4164
11.7026
11.9218
12.0672
12.1388
12.1387
12.0673
11.9346
11.7707
11.6263
11.545
11.5271
11.5349
11.5262
11.4711
11.3552
11.175
10.9172
10.4947
119.567
1087.36
1022
114.328
5.8446
6.79062
7.42059
7.95795
8.43168
8.85046
9.22335
9.565
9.89432
10.2327
10.5936
10.9689
11.3325
11.6558
11.9172
12.1051
12.2185
12.2565
12.2204
12.1163
11.9655
11.8103
11.6973
11.6425
11.6209
11.5923
11.5253
11.4038
11.2218
10.9621
10.5349
119.567
1087.36
1022.04
114.349
5.75283
6.68832
7.32058
7.86586
8.34639
8.76739
9.13529
9.46422
9.77534
10.0955
10.446
10.8245
11.2049
11.5602
11.8667
12.1031
12.2639
12.3482
12.3539
12.285
12.1578
12.007
11.8765
11.7921
11.7415
11.6894
11.6052
11.4715
11.2789
11.0071
10.5597
119.569
1087.37
1022.07
114.369
5.66408
6.5852
7.21894
7.77217
8.26142
8.68776
9.05339
9.37035
9.66052
9.95438
10.2804
10.6416
11.0225
11.408
11.7614
12.0486
12.2545
12.3778
12.4251
12.4006
12.3061
12.1714
12.0404
11.9404
11.8649
11.7876
11.6817
11.5308
11.3229
11.0297
10.5505
119.6
1087.46
1022.11
114.386
5.56753
6.47195
7.10561
7.66941
8.17349
8.6125
8.9829
9.29259
9.56109
9.81923
10.1023
10.427
10.7953
11.2011
11.5926
11.9221
12.1728
12.3418
12.4202
12.4255
12.3749
12.277
12.1577
12.0465
11.9478
11.8428
11.7123
11.5435
11.3227
11.0221
10.5202
119.638
1087.53
1022.13
114.398
5.46649
6.3528
6.98184
7.55158
8.06948
8.52588
8.91032
9.22287
9.47581
9.69474
9.92163
10.1893
10.5107
10.8974
11.3021
11.6686
11.9701
12.1947
12.3365
12.3889
12.3669
12.282
12.1818
12.0735
11.9656
11.8502
11.7124
11.5355
11.3021
10.9867
10.4727
119.654
1087.54
1022.15
114.403
5.35688
6.22284
6.84507
7.41965
7.95327
8.43432
8.84708
9.18369
9.44773
9.65666