/*--------------------------------*- C++ -*----------------------------------*\
  =========                 |
  \\      /  F ield         | OpenFOAM: The Open Source CFD Toolbox
   \\    /   O peration     | Website:  https://openfoam.org
    \\  /    A nd           | Version:  11
     \\/     M anipulation  |
\*---------------------------------------------------------------------------*/
FoamFile
{
    format      ascii;
    class       surfaceScalarField;
    location    "750";
    object      phi;
}
// * * * * * * * * * * * * * * * * * * * * * * * * * * * * * * * * * * * * * //

dimensions      [1 0 -1 0 0 0 0];

internalField   nonuniform List<scalar> 
228225
(
-2.93104e-06
1.44915e-06
1.4818e-06
-6.7961e-06
1.06452e-06
2.80047e-06
-9.36485e-06
-4.63914e-07
3.0326e-06
-1.02241e-05
-2.16032e-06
3.01947e-06
-9.26662e-06
-3.8868e-06
2.92928e-06
-6.84428e-06
-5.24016e-06
2.81775e-06
-3.41487e-06
-6.16083e-06
2.73136e-06
5.88079e-07
-6.69798e-06
2.69497e-06
4.90199e-06
-7.00575e-06
2.69178e-06
9.36473e-06
-7.14181e-06
2.67901e-06
1.38421e-05
-7.14167e-06
2.6642e-06
1.82741e-05
-7.08188e-06
2.64991e-06
2.25502e-05
-6.91212e-06
2.63593e-06
2.66337e-05
-6.70182e-06
2.6183e-06
3.04709e-05
-6.43867e-06
2.60136e-06
3.40151e-05
-6.12958e-06
2.58532e-06
3.72298e-05
-5.78387e-06
2.56922e-06
4.00424e-05
-5.37397e-06
2.56126e-06
4.24964e-05
-4.96332e-06
2.50929e-06
4.45754e-05
-4.57489e-06
2.49591e-06
4.62482e-05
-4.16642e-06
2.4935e-06
4.73299e-05
-3.57315e-06
2.49146e-06
4.79551e-05
-3.11156e-06
2.48631e-06
4.8007e-05
-2.54211e-06
2.49019e-06
4.74558e-05
-1.94431e-06
2.49552e-06
4.62961e-05
-1.34332e-06
2.50294e-06
4.44817e-05
-7.01858e-07
2.51618e-06
4.17719e-05
1.71229e-07
2.53852e-06
3.84122e-05
7.89968e-07
2.56971e-06
3.42585e-05
1.54245e-06
2.61121e-06
2.91656e-05
2.43521e-06
2.65766e-06
2.30088e-05
3.41255e-06
2.74416e-06
1.57656e-05
4.39086e-06
2.85224e-06
7.37421e-06
5.52349e-06
2.86779e-06
5.58e-06
1.79421e-06
2.41645e-07
2.78478e-07
9.28848e-07
6.204e-07
-1.12704e-06
1.81262e-06
2.0018e-06
-3.86646e-06
2.02097e-06
4.35853e-06
-6.50091e-06
1.98371e-06
7.11935e-06
-8.54854e-06
1.90078e-06
9.9816e-06
-9.83664e-06
1.73412e-06
1.27635e-05
-1.05616e-05
1.61877e-06
1.54152e-05
-1.09139e-05
1.56414e-06
1.79692e-05
-1.10487e-05
1.48878e-06
2.04041e-05
-1.10029e-05
1.42614e-06
2.2691e-05
-1.07966e-05
1.36801e-06
2.48078e-05
-1.054e-05
1.34126e-06
2.67735e-05
-1.01978e-05
1.31987e-06
2.85522e-05
-9.77996e-06
1.29941e-06
3.01363e-05
-9.30699e-06
1.28416e-06
3.15193e-05
-8.78613e-06
1.27347e-06
3.26934e-05
-8.22447e-06
1.26644e-06
3.36698e-05
-7.61565e-06
1.26521e-06
3.42851e-05
-6.87372e-06
1.29502e-06
3.45826e-05
-6.16001e-06
1.28752e-06
3.46027e-05
-5.46688e-06
1.28036e-06
3.4491e-05
-4.74738e-06
1.28587e-06
3.40551e-05
-3.97716e-06
1.30141e-06
3.33439e-05
-3.1606e-06
1.32962e-06
3.23445e-05
-2.31045e-06
1.36547e-06
3.10704e-05
-1.468e-06
1.39871e-06
2.9406e-05
-4.9885e-07
1.4613e-06
2.72073e-05
8.16928e-07
1.55294e-06
2.47623e-05
1.58268e-06
1.65222e-06
2.18789e-05
2.64685e-06
1.77894e-06
1.83996e-05
3.99437e-06
1.92005e-06
1.41311e-05
5.61385e-06
2.067e-06
9.00306e-06
7.30313e-06
2.21568e-06
3.40829e-06
8.92244e-06
2.19564e-06
7.70001e-06
1.28827e-06
5.58924e-07
-9.15679e-07
6.35039e-07
2.5811e-06
-4.30419e-06
1.15477e-06
5.50488e-06
-7.99964e-06
1.20924e-06
8.38504e-06
-1.05351e-05
1.15389e-06
1.07696e-05
-1.1969e-05
1.03584e-06
1.25864e-05
-1.26303e-05
9.76831e-07
1.39433e-05
-1.28945e-05
9.75951e-07
1.50809e-05
-1.29662e-05
9.14648e-07
1.6046e-05
-1.29059e-05
8.92047e-07
1.68846e-05
-1.27202e-05
8.78675e-07
1.76608e-05
-1.2442e-05
8.69193e-07
1.83427e-05
-1.20852e-05
8.63201e-07
1.89489e-05
-1.16637e-05
8.59546e-07
1.94938e-05
-1.11822e-05
8.57305e-07
1.99755e-05
-1.06448e-05
8.56041e-07
2.03886e-05
-1.00548e-05
8.55539e-07
2.07237e-05
-9.4156e-06
8.55981e-07
2.09798e-05
-8.72992e-06
8.58115e-07
2.12276e-05
-7.9864e-06
8.64796e-07
2.13144e-05
-7.13351e-06
8.86694e-07
2.11895e-05
-6.24768e-06
9.05642e-07
2.08779e-05
-5.36255e-06
9.26687e-07
2.03994e-05
-4.44973e-06
9.51027e-07
1.97572e-05
-3.50533e-06
9.86787e-07
1.89608e-05
-2.54436e-06
1.03023e-06
1.79775e-05
-1.56839e-06
1.08359e-06
1.67261e-05
-4.0646e-07
1.15901e-06
1.56402e-05
6.51701e-07
1.25105e-06
1.42665e-05
1.61196e-06
1.34426e-06
1.25555e-05
2.87813e-06
1.47959e-06
1.0454e-05
4.45414e-06
1.64163e-06
7.85698e-06
6.40021e-06
1.81054e-06
4.70639e-06
8.49427e-06
1.9593e-06
1.47305e-06
1.02837e-05
1.87188e-06
8.19543e-06
9.77633e-07
6.76476e-07
-2.00464e-06
4.12301e-07
2.59238e-06
-6.85037e-06
6.30116e-07
4.64363e-06
-1.06668e-05
6.158e-07
6.26848e-06
-1.27333e-05
5.7335e-07
7.42512e-06
-1.3686e-05
5.60256e-07
8.33828e-06
-1.4116e-05
5.72512e-07
9.17551e-06
-1.4286e-05
5.54235e-07
9.96314e-06
-1.42913e-05
5.37467e-07
1.07014e-05
-1.41728e-05
5.28669e-07
1.141e-05
-1.39515e-05
5.22602e-07
1.20882e-05
-1.36388e-05
5.18556e-07
1.27312e-05
-1.32441e-05
5.15976e-07
1.33259e-05
-1.27726e-05
5.14136e-07
1.38598e-05
-1.22289e-05
5.12767e-07
1.43193e-05
-1.16164e-05
5.12035e-07
1.46904e-05
-1.09382e-05
5.12212e-07
1.49598e-05
-1.01985e-05
5.13477e-07
1.5117e-05
-9.40294e-06
5.15805e-07
1.51673e-05
-8.55596e-06
5.19122e-07
1.5165e-05
-7.65564e-06
5.24437e-07
1.50774e-05
-6.69939e-06
5.3922e-07
1.48688e-05
-5.71593e-06
5.61946e-07
1.45325e-05
-4.70565e-06
5.92177e-07
1.40763e-05
-3.68253e-06
6.33248e-07
1.35034e-05
-2.65957e-06
6.88066e-07
1.27835e-05
-1.60924e-06
7.60646e-07
1.18939e-05
-3.71121e-07
8.5418e-07
1.11041e-05
4.89146e-07
9.52333e-07
1.01071e-05
1.52446e-06
1.08441e-06
8.87136e-06
2.88116e-06
1.23258e-06
7.35162e-06
4.59042e-06
1.38335e-06
5.42081e-06
6.78692e-06
1.544e-06
3.06689e-06
9.17408e-06
1.67398e-06
7.66801e-07
1.1024e-05
1.55968e-06
8.24111e-06
7.21119e-07
6.30944e-07
-2.91205e-06
2.76311e-07
2.01943e-06
-8.63623e-06
3.97258e-07
3.42689e-06
-1.24629e-05
3.88529e-07
4.63675e-06
-1.43096e-05
3.66342e-07
5.71437e-06
-1.51136e-05
3.49952e-07
6.70507e-06
-1.54455e-05
3.38696e-07
7.62694e-06
-1.55291e-05
3.21211e-07
8.48517e-06
-1.54633e-05
3.13725e-07
9.27355e-06
-1.52698e-05
3.0861e-07
9.98976e-06
-1.49722e-05
3.04402e-07
1.06319e-05
-1.45824e-05
3.01377e-07
1.11948e-05
-1.41077e-05
3.00623e-07
1.1677e-05
-1.35545e-05
2.99699e-07
1.20764e-05
-1.29277e-05
2.99313e-07
1.23912e-05
-1.22312e-05
3.00043e-07
1.26196e-05
-1.14691e-05
3.02428e-07
1.27593e-05
-1.06451e-05
3.0695e-07
1.28065e-05
-9.76413e-06
3.13982e-07
1.27536e-05
-8.82713e-06
3.24013e-07
1.25867e-05
-7.82702e-06
3.38261e-07
1.23377e-05
-6.79955e-06
3.49106e-07
1.20289e-05
-5.77116e-06
3.6392e-07
1.16706e-05
-4.73696e-06
3.89502e-07
1.12715e-05
-3.71032e-06
4.26832e-07
1.08348e-05
-2.70166e-06
4.78749e-07
1.03142e-05
-1.63787e-06
5.49089e-07
9.73299e-06
-4.27529e-07
6.37564e-07
9.02859e-06
4.62589e-07
7.30878e-07
8.2522e-06
1.45009e-06
8.50652e-07
7.28898e-06
2.84589e-06
9.98361e-07
6.04174e-06
4.67991e-06
1.15762e-06
4.43149e-06
7.07974e-06
1.31731e-06
2.46235e-06
9.69961e-06
1.44347e-06
6.14771e-07
1.15501e-05
1.32125e-06
8.27517e-06
5.80707e-07
5.60714e-07
-3.64434e-06
1.7144e-07
1.59856e-06
-9.89423e-06
2.2007e-07
2.60035e-06
-1.36678e-05
2.03009e-07
3.42776e-06
-1.53268e-05
1.89736e-07
4.12434e-06
-1.5998e-05
1.87801e-07
4.74375e-06
-1.62572e-05
1.92261e-07
5.31476e-06
-1.62998e-05
1.99613e-07
5.85461e-06
-1.62024e-05
1.9917e-07
6.36715e-06
-1.59763e-05
1.93867e-07
6.85312e-06
-1.56437e-05
1.8554e-07
7.31187e-06
-1.52162e-05
1.75042e-07
7.74329e-06
-1.47017e-05
1.6252e-07
8.14276e-06
-1.41054e-05
1.51372e-07
8.50418e-06
-1.34313e-05
1.42196e-07
8.82072e-06
-1.2683e-05
1.35228e-07
9.08574e-06
-1.18648e-05
1.30687e-07
9.29281e-06
-1.09812e-05
1.28943e-07
9.43499e-06
-1.00371e-05
1.30791e-07
9.51077e-06
-9.04014e-06
1.37186e-07
9.53858e-06
-8.00618e-06
1.51315e-07
9.50737e-06
-6.94761e-06
1.79224e-07
9.41055e-06
-5.88504e-06
2.10654e-07
9.25106e-06
-4.82364e-06
2.46133e-07
9.03112e-06
-3.77915e-06
2.88718e-07
8.7514e-06
-2.76454e-06
3.42542e-07
8.39912e-06
-1.69276e-06
4.07109e-07
8.02364e-06
-5.39739e-07
4.87638e-07
7.4448e-06
4.67762e-07
5.73608e-07
6.79221e-06
1.42605e-06
6.76566e-07
5.99928e-06
2.83019e-06
8.08552e-07
4.96512e-06
4.75707e-06
9.56931e-07
3.59858e-06
7.32661e-06
1.1196e-06
1.94688e-06
1.01191e-05
1.23212e-06
4.64265e-07
1.19262e-05
1.10644e-06
8.26848e-06
4.70952e-07
3.73412e-07
-4.12548e-06
1.07625e-07
1.08808e-06
-1.07436e-05
1.34665e-07
1.81541e-06
-1.45223e-05
1.27202e-07
2.49536e-06
-1.6122e-05
1.1518e-07
3.1494e-06
-1.6757e-05
1.0491e-07
3.78722e-06
-1.69917e-05
9.66902e-08
4.40579e-06
-1.70084e-05
9.00138e-08
5.00031e-06
-1.68816e-05
8.47387e-08
5.56646e-06
-1.66226e-05
8.01357e-08
6.10145e-06
-1.62544e-05
7.57142e-08
6.60194e-06
-1.5788e-05
7.13267e-08
7.06647e-06
-1.5233e-05
6.67513e-08
7.49033e-06
-1.45923e-05
6.30057e-08
7.86791e-06
-1.3869e-05
6.0078e-08
8.19272e-06
-1.30661e-05
5.82069e-08
8.45846e-06
-1.21883e-05
5.76938e-08
8.65957e-06
-1.1241e-05
5.86593e-08
8.79009e-06
-1.02287e-05
6.09648e-08
8.85231e-06
-9.16487e-06
6.24752e-08
8.85778e-06
-8.08082e-06
6.91349e-08
8.81219e-06
-6.98462e-06
8.25637e-08
8.70771e-06
-5.8834e-06
1.02782e-07
8.54417e-06
-4.7879e-06
1.27744e-07
8.31956e-06
-3.71321e-06
1.58616e-07
8.01933e-06
-2.66091e-06
1.96537e-07
7.65426e-06
-1.57684e-06
2.49084e-07
7.25512e-06
-4.58897e-07
3.18231e-07
6.78987e-06
5.30203e-07
4.02732e-07
6.20627e-06
1.51578e-06
4.93785e-07
5.49856e-06
2.92401e-06
6.13784e-07
4.54764e-06
4.94365e-06
7.64251e-07
3.24952e-06
7.70065e-06
9.23991e-07
1.73607e-06
1.05912e-05
1.04128e-06
4.26054e-07
1.23035e-05
9.32669e-07
8.32038e-06
3.74151e-07
3.29684e-07
-4.51489e-06
5.96336e-08
9.17536e-07
-1.13998e-05
6.82697e-08
1.50795e-06
-1.51762e-05
6.34354e-08
2.03781e-06
-1.67122e-05
6.03808e-08
2.52981e-06
-1.7307e-05
5.7931e-08
3.00273e-06
-1.75194e-05
5.47436e-08
3.46509e-06
-1.7521e-05
5.02268e-08
3.9162e-06
-1.73775e-05
4.46866e-08
4.35522e-06
-1.70997e-05
3.80747e-08
4.78023e-06
-1.67103e-05
3.08514e-08
5.18708e-06
-1.62183e-05
2.34533e-08
5.56744e-06
-1.56295e-05
1.61578e-08
5.91535e-06
-1.49486e-05
8.34084e-09
6.22564e-06
-1.41798e-05
4.9697e-10
6.49416e-06
-1.33277e-05
-6.90679e-09
6.71798e-06
-1.23988e-05
-1.33474e-08
6.89606e-06
-1.14009e-05
-1.81911e-08
7.03167e-06
-1.0344e-05
-2.02958e-08
7.12752e-06
-9.24452e-06
-1.62234e-08
7.17425e-06
-8.11569e-06
-1.18905e-08
7.17391e-06
-6.97794e-06
-6.36621e-09
7.1275e-06
-5.83761e-06
5.99758e-10
7.04294e-06
-4.71744e-06
1.40719e-08
6.91941e-06
-3.62551e-06
3.57984e-08
6.73808e-06
-2.54658e-06
6.69817e-08
6.48899e-06
-1.43881e-06
1.1104e-07
6.16881e-06
-3.10236e-07
1.715e-07
5.89443e-06
5.61012e-07
2.43556e-07
5.41138e-06
1.65854e-06
3.40265e-07
4.76232e-06
3.10992e-06
4.63138e-07
3.88978e-06
5.20883e-06
6.07341e-07
2.70959e-06
8.12966e-06
7.51159e-07
1.37373e-06
1.10758e-05
8.51231e-07
2.87816e-07
1.26342e-05
7.55143e-07
8.31842e-06
2.8977e-07
2.34869e-07
-4.78674e-06
3.69139e-08
7.15328e-07
-1.19248e-05
4.4479e-08
1.23894e-06
-1.57441e-05
4.42111e-08
1.75109e-06
-1.72659e-05
4.14698e-08
2.2507e-06
-1.78447e-05
3.81321e-08
2.73925e-06
-1.80423e-05
3.42902e-08
3.21616e-06
-1.80278e-05
2.98822e-08
3.67651e-06
-1.78627e-05
2.48746e-08
4.11951e-06
-1.75621e-05
1.9353e-08
4.54229e-06
-1.71464e-05
1.33313e-08
4.94027e-06
-1.66232e-05
6.82956e-09
5.30714e-06
-1.59965e-05
6.03594e-11
5.63827e-06
-1.52729e-05
-6.80371e-09
5.92876e-06
-1.44567e-05
-1.36013e-08
6.17478e-06
-1.35536e-05
-2.01983e-08
6.37383e-06
-1.25714e-05
-2.64807e-08
6.52572e-06
-1.15204e-05
-3.24086e-08
6.63649e-06
-1.04163e-05
-3.84435e-08
6.7097e-06
-9.27603e-06
-4.1724e-08
6.74222e-06
-8.10571e-06
-4.25245e-08
6.72743e-06
-6.92316e-06
-4.00192e-08
6.66847e-06
-5.74378e-06
-3.48978e-08
6.56594e-06
-4.58962e-06
-2.53156e-08
6.42074e-06
-3.46985e-06
-1.04859e-08
6.22659e-06
-2.36395e-06
1.14753e-08
5.98494e-06
-1.24083e-06
4.36391e-08
5.69841e-06
-1.12978e-07
8.92456e-08
5.33935e-06
7.7244e-07
1.4759e-07
4.85908e-06
1.90867e-06
2.30091e-07
4.19738e-06
3.43292e-06
3.38651e-07
3.31502e-06
5.61795e-06
4.73184e-07
2.25049e-06
8.57721e-06
6.16932e-07
1.1329e-06
1.14832e-05
7.10183e-07
2.57638e-07
1.28865e-05
6.22902e-07
8.34348e-06
2.32578e-07
2.36921e-07
-5.04259e-06
1.88672e-08
6.79841e-07
-1.2392e-05
2.42781e-08
1.14552e-06
-1.62375e-05
2.77505e-08
1.58956e-06
-1.77382e-05
2.82418e-08
2.01884e-06
-1.83005e-05
2.64927e-08
2.43851e-06
-1.84851e-05
2.31232e-08
2.85002e-06
-1.84577e-05
1.84369e-08
3.24675e-06
-1.8272e-05
1.25502e-08
3.63e-06
-1.7951e-05
5.71834e-09
3.99718e-06
-1.75117e-05
-1.89879e-09
4.34575e-06
-1.69614e-05
-1.03038e-08
4.67405e-06
-1.63056e-05
-1.92569e-08
4.97869e-06
-1.55491e-05
-2.84542e-08
5.25733e-06
-1.46978e-05
-3.75725e-08
5.50774e-06
-1.37577e-05
-4.62341e-08
5.72681e-06
-1.27365e-05
-5.39299e-08
5.91083e-06
-1.16446e-05
-5.98507e-08
6.05324e-06
-1.04961e-05
-6.26046e-08
6.14824e-06
-9.30531e-06
-6.57263e-08
6.19874e-06
-8.08788e-06
-6.83236e-08
6.20638e-06
-6.86148e-06
-6.93345e-08
6.17203e-06
-5.64176e-06
-6.76619e-08
6.09128e-06
-4.44616e-06
-6.27179e-08
5.96238e-06
-3.28757e-06
-5.33781e-08
5.77632e-06
-2.13986e-06
-3.80364e-08
5.53102e-06
-9.81449e-07
-1.40802e-08
5.23543e-06
1.6111e-07
2.15124e-08
4.88088e-06
1.05751e-06
6.94855e-08
4.41356e-06
2.23636e-06
1.39641e-07
3.80583e-06
3.80839e-06
2.32277e-07
3.03518e-06
6.03514e-06
3.53474e-07
2.11142e-06
9.00897e-06
4.92012e-07
1.1265e-06
1.18774e-05
5.90663e-07
3.05058e-07
1.31789e-05
5.29047e-07
8.45013e-06
1.98412e-07
2.00769e-07
-5.25679e-06
1.33786e-08
6.10262e-07
-1.28259e-05
2.42878e-08
1.05302e-06
-1.67116e-05
3.12802e-08
1.48831e-06
-1.82055e-05
3.20301e-08
1.9159e-06
-1.87582e-05
3.00666e-08
2.33585e-06
-1.89317e-05
2.66648e-08
2.74611e-06
-1.88903e-05
2.22786e-08
3.141e-06
-1.86839e-05
1.7044e-08
3.51847e-06
-1.83397e-05
1.1151e-08
3.87565e-06
-1.78734e-05
4.53618e-09
4.21054e-06
-1.72935e-05
-2.8788e-09
4.52107e-06
-1.66051e-05
-1.09671e-08
4.80674e-06
-1.58152e-05
-1.95646e-08
5.06752e-06
-1.49301e-05
-2.85006e-08
5.30211e-06
-1.39547e-05
-3.76419e-08
5.50859e-06
-1.28962e-05
-4.68489e-08
5.68402e-06
-1.17641e-05
-5.59274e-08
5.82472e-06
-1.05724e-05
-6.44886e-08
5.92995e-06
-9.33895e-06
-7.16066e-08
6.00156e-06
-8.08198e-06
-7.75101e-08
6.03723e-06
-6.8155e-06
-8.16606e-08
6.03542e-06
-5.55661e-06
-8.3358e-08
5.99586e-06
-4.32443e-06
-8.21783e-08
5.90943e-06
-3.12375e-06
-7.74037e-08
5.75693e-06
-1.9195e-06
-6.78637e-08
5.55171e-06
-7.24789e-07
-5.14498e-08
5.33645e-06
4.02128e-07
-2.57606e-08
5.06247e-06
1.32166e-06
9.82823e-09
4.65368e-06
2.58237e-06
6.27739e-08
4.0713e-06
4.25416e-06
1.36603e-07
3.27712e-06
6.59195e-06
2.37371e-07
2.28008e-06
9.64389e-06
3.6212e-07
1.21649e-06
1.24768e-05
4.64212e-07
3.30277e-07
1.36283e-05
4.36816e-07
8.61928e-06
1.61125e-07
2.19081e-07
-5.48471e-06
8.7951e-09
6.06159e-07
-1.32375e-05
2.45392e-08
9.98492e-07
-1.7138e-05
3.40444e-08
1.37082e-06
-1.86128e-05
3.49388e-08
1.73191e-06
-1.91519e-05
3.26227e-08
2.08484e-06
-1.93134e-05
2.879e-08
2.42843e-06
-1.92579e-05
2.40016e-08
2.76e-06
-1.90339e-05
1.83378e-08
3.07698e-06
-1.86686e-05
1.19773e-08
3.37745e-06
-1.81788e-05
4.86278e-09
3.66095e-06
-1.75739e-05
-3.0793e-09
3.9287e-06
-1.68612e-05
-1.17127e-08
4.18075e-06
-1.60464e-05
-2.08283e-08
4.41568e-06
-1.51347e-05
-3.03317e-08
4.63435e-06
-1.41332e-05
-4.01809e-08
4.8377e-06
-1.30493e-05
-5.02014e-08
5.02482e-06
-1.18911e-05
-6.01424e-08
5.1918e-06
-1.06697e-05
-6.96149e-08
5.33231e-06
-9.40137e-06
-7.80888e-08
5.43706e-06
-8.10129e-06
-8.54319e-08
5.49798e-06
-6.78351e-06
-9.29018e-08
5.51517e-06
-5.47563e-06
-9.81541e-08
5.49285e-06
-4.20134e-06
-1.00758e-07
5.42077e-06
-2.95159e-06
-1.00062e-07
5.28034e-06
-1.68403e-06
-9.50126e-08
5.08856e-06
-4.48974e-07
-8.40185e-08
4.95853e-06
5.97495e-07
-6.53168e-08
4.67332e-06
1.64458e-06
-3.77009e-08
4.25598e-06
2.99441e-06
5.323e-09
3.65314e-06
4.79063e-06
6.6386e-08
2.81512e-06
7.28182e-06
1.48166e-07
1.80223e-06
1.04102e-05
2.46604e-07
8.31789e-07
1.31214e-05
3.25913e-07
1.33834e-07
1.40173e-05
3.08966e-07
8.65187e-06
1.01248e-07
1.8201e-07
-5.68041e-06
1.36586e-08
5.26295e-07
-1.36213e-05
3.95121e-08
8.78913e-07
-1.75422e-05
5.15502e-08
1.21922e-06
-1.90044e-05
5.1294e-08
1.55294e-06
-1.95334e-05
4.77724e-08
1.88099e-06
-1.96847e-05
4.31737e-08
2.2006e-06
-1.96156e-05
3.81248e-08
2.50827e-06
-1.93743e-05
3.27375e-08
2.80123e-06
-1.89886e-05
2.70311e-08
3.0773e-06
-1.84757e-05
2.08438e-08
3.33535e-06
-1.78459e-05
1.40001e-08
3.57508e-06
-1.71074e-05
6.47297e-09
3.79594e-06
-1.62655e-05
-1.81058e-09
3.99884e-06
-1.53267e-05
-1.0888e-08
4.18551e-06
-1.42991e-05
-2.07386e-08
4.35756e-06
-1.31899e-05
-3.14091e-08
4.51486e-06
-1.20055e-05
-4.28496e-08
4.65423e-06
-1.07543e-05
-5.48151e-08
4.77004e-06
-9.45042e-06
-6.67519e-08
4.85944e-06
-8.11274e-06
-7.79364e-08
4.92253e-06
-6.75837e-06
-8.8229e-08
4.95106e-06
-5.40714e-06
-9.70096e-08
4.92956e-06
-4.07655e-06
-1.03282e-07
4.85543e-06
-2.77126e-06
-1.06186e-07
4.72655e-06
-1.45015e-06
-1.04989e-07
4.54647e-06
-1.70452e-07
-9.84332e-08
4.38062e-06
8.48726e-07
-8.53672e-08
4.02822e-06
2.05912e-06
-6.21393e-08
3.55805e-06
3.48785e-06
-2.32523e-08
2.9732e-06
5.34116e-06
3.43351e-08
2.26741e-06
7.87637e-06
1.11241e-07
1.48157e-06
1.09995e-05
1.96561e-07
7.37339e-07
1.36083e-05
2.57255e-07
1.78559e-07
1.43388e-05
2.37308e-07
8.75807e-06
7.23609e-08
1.87392e-07
-5.88477e-06
1.69407e-08
4.89666e-07
-1.39746e-05
5.09742e-08
7.77831e-07
-1.7895e-05
6.46513e-08
1.04724e-06
-1.93371e-05
6.33005e-08
1.30967e-06
-1.98544e-05
5.85513e-08
1.56796e-06
-1.99959e-05
5.29525e-08
1.82029e-06
-1.99152e-05
4.71998e-08
2.0644e-06
-1.96598e-05
4.13883e-08
2.29836e-06
-1.92581e-05
3.55143e-08
2.5207e-06
-1.87274e-05
2.93908e-08
2.73046e-06
-1.80785e-05
2.28153e-08
2.92749e-06
-1.73201e-05
1.57214e-08
3.11428e-06
-1.64603e-05
8.05284e-09
3.2944e-06
-1.55065e-05
-2.82765e-10
3.46986e-06
-1.44651e-05
-9.46265e-09
3.64252e-06
-1.33429e-05
-1.96676e-08
3.81331e-06
-1.21453e-05
-3.10067e-08
3.98083e-06
-1.08784e-05
-4.34193e-08
4.14161e-06
-9.55459e-06
-5.66001e-08
4.28891e-06
-8.18933e-06
-7.06855e-08
4.41099e-06
-6.7965e-06
-8.39205e-08
4.49391e-06
-5.3941e-06
-9.59367e-08
4.52172e-06
-3.99812e-06
-1.06213e-07
4.49484e-06
-2.63052e-06
-1.13831e-07
4.42792e-06
-1.26544e-06
-1.17746e-07
4.32644e-06
4.8055e-08
-1.16995e-07
4.17033e-06
1.1154e-06
-1.10517e-07
3.91967e-06
2.40609e-06
-9.62587e-08
3.54544e-06
3.93088e-06
-6.8747e-08
3.03649e-06
5.872e-06
-2.18308e-08
2.40217e-06
8.46034e-06
5.04052e-08
1.6603e-06
1.16023e-05
1.39054e-07
8.86788e-07
1.4174e-05
2.07935e-07
2.34514e-07
1.47853e-05
2.05914e-07
8.92617e-06
6.64106e-08
1.43247e-07
-6.05596e-06
2.79036e-08
3.83856e-07
-1.42893e-05
7.40344e-08
6.14872e-07
-1.82156e-05
8.95659e-08
8.35026e-07
-1.9644e-05
8.67428e-08
1.0533e-06
-2.01532e-05
8.04931e-08
1.27126e-06
-2.02877e-05
7.38016e-08
1.48653e-06
-2.01979e-05
6.7447e-08
1.6969e-06
-1.99317e-05
6.15919e-08
1.90062e-06
-1.9518e-05
5.6145e-08
2.09667e-06
-1.89743e-05
5.08345e-08
2.28461e-06
-1.83118e-05
4.53913e-08
2.46424e-06
-1.75394e-05
3.96566e-08
2.63546e-06
-1.6665e-05
3.34399e-08
2.79876e-06
-1.56963e-05
2.64862e-08
2.95656e-06
-1.46414e-05
1.84998e-08
3.11218e-06
-1.35077e-05
9.17328e-09
3.26993e-06
-1.23013e-05
-1.76923e-09
3.4332e-06
-1.10271e-05
-1.44877e-08
3.60044e-06
-9.693e-06
-2.88209e-08
3.76425e-06
-8.30835e-06
-4.47842e-08
3.91648e-06
-6.88713e-06
-6.15782e-08
4.04503e-06
-5.44472e-06
-7.79061e-08
4.13713e-06
-3.99807e-06
-9.2139e-08
4.17712e-06
-2.56545e-06
-1.05025e-07
4.18591e-06
-1.16052e-06
-1.13688e-07
4.16614e-06
1.85433e-07
-1.17582e-07
4.08916e-06
1.30864e-06
-1.16239e-07
3.93001e-06
2.67564e-06
-1.10386e-07
3.62471e-06
4.33279e-06
-9.65804e-08
3.09713e-06
6.46971e-06
-7.0099e-08
2.33012e-06
9.24865e-06
-2.12818e-08
1.4387e-06
1.24427e-05
5.11076e-08
6.34343e-07
1.4862e-05
1.16389e-07
6.80353e-08
1.52197e-05
1.31902e-07
8.96544e-06
2.87735e-08
1.24124e-07
-6.21604e-06
3.59091e-08
3.09407e-07
-1.4564e-05
8.94183e-08
4.77914e-07
-1.84901e-05
1.05979e-07
6.35721e-07
-1.99043e-05
1.02463e-07
7.92952e-07
-2.04058e-05
9.53508e-08
9.51904e-07
-2.05345e-05
8.78939e-08
1.11116e-06
-2.04381e-05
8.09607e-08
1.26943e-06
-2.01648e-05
7.47884e-08
1.4256e-06
-1.97435e-05
6.93533e-08
1.57927e-06
-1.91924e-05
6.43978e-08
1.73055e-06
-1.85228e-05
5.96632e-08
1.87984e-06
-1.77437e-05
5.5004e-08
2.02765e-06
-1.6863e-05
5.02363e-08
2.17418e-06
-1.58879e-05
4.5076e-08
2.3191e-06
-1.48254e-05
3.91211e-08
2.46232e-06
-1.36828e-05
3.18916e-08
2.60579e-06
-1.24677e-05
2.29241e-08
2.75426e-06
-1.11875e-05
1.18705e-08
2.91168e-06
-9.84903e-06
-1.37603e-09
3.07758e-06
-8.45702e-06
-1.7209e-08
3.24137e-06
-7.0158e-06
-3.51029e-08
3.38133e-06
-5.53084e-06
-5.38122e-08
3.47295e-06
-4.01747e-06
-7.21771e-08
3.49265e-06
-2.49797e-06
-8.71548e-08
3.44647e-06
-1.01461e-06
-9.9687e-08
3.35012e-06
3.87833e-07
-1.06001e-07
3.18845e-06
1.57569e-06
-1.0534e-07
2.95334e-06
3.00908e-06
-9.82667e-08
2.59861e-06
4.77155e-06
-8.39631e-08
2.06756e-06
7.06461e-06
-6.37867e-08
1.3632e-06
9.98895e-06
-3.58775e-08
6.52004e-07
1.31512e-05
2.67953e-09
1.61361e-07
1.53164e-05
3.62314e-08
-4.72667e-08
1.53862e-05
4.2202e-08
8.92058e-06
-2.41125e-09
8.84049e-08
-6.35245e-06
4.79309e-08
2.36814e-07
-1.48238e-05
1.11387e-07
3.74429e-07
-1.8757e-05
1.29282e-07
5.08268e-07
-2.01631e-05
1.24913e-07
6.45262e-07
-2.06596e-05
1.1682e-07
7.86447e-07
-2.07843e-05
1.08538e-07
9.30288e-07
-2.0683e-05
1.01014e-07
1.07563e-06
-2.04047e-05
9.45648e-08
1.22158e-06
-1.99786e-05
8.91869e-08
1.36787e-06
-1.94233e-05
8.46072e-08
1.51454e-06
-1.875e-05
8.0553e-08
1.66165e-06
-1.79677e-05
7.68595e-08
1.80902e-06
-1.70837e-05
7.33155e-08
1.95607e-06
-1.61046e-05
6.96086e-08
2.10174e-06
-1.50364e-05
6.53058e-08
2.24438e-06
-1.38853e-05
5.98748e-08
2.3821e-06
-1.26581e-05
5.27511e-08
2.51409e-06
-1.13629e-05
4.34615e-08
2.64214e-06
-1.00089e-05
3.18509e-08
2.7698e-06
-8.60202e-06
1.73517e-08
2.89611e-06
-7.14185e-06
-2.51842e-10
3.01125e-06
-5.62523e-06
-2.0741e-08
3.08996e-06
-4.05311e-06
-4.30466e-08
3.09882e-06
-2.44243e-06
-6.43711e-08
3.02195e-06
-8.56494e-07
-8.12297e-08
2.88274e-06
6.19803e-07
-9.27305e-08
2.69127e-06
1.86223e-06
-9.50347e-08
2.4048e-06
3.38257e-06
-8.69798e-08
2.0429e-06
5.19927e-06
-6.57786e-08
1.65237e-06
7.4887e-06
-3.35213e-08
1.25894e-06
1.03802e-05
2.23724e-09
8.64256e-07
1.35125e-05
3.34573e-08
4.88257e-07
1.56399e-05
5.25613e-08
1.84853e-07
1.56424e-05
4.72058e-08
9.09449e-06
1.09469e-08
9.52098e-08
-6.50334e-06
5.55863e-08
2.09984e-07
-1.50636e-05
1.24922e-07
3.00956e-07
-1.89913e-05
1.43222e-07
3.90519e-07
-2.03913e-05
1.386e-07
4.87555e-07
-2.08869e-05
1.30244e-07
5.93268e-07
-2.10117e-05
1.21723e-07
7.06101e-07
-2.09098e-05
1.14003e-07
8.25161e-07
-2.06312e-05
1.07434e-07
9.49471e-07
-2.0205e-05
1.02076e-07
1.07876e-06
-1.96502e-05
9.76579e-08
1.2131e-06
-1.89783e-05
9.39184e-08
1.3526e-06
-1.81979e-05
9.07194e-08
1.49737e-06
-1.73164e-05
8.78705e-08
1.64755e-06
-1.63399e-05
8.50744e-08
1.80326e-06
-1.5274e-05
8.19005e-08
1.96433e-06
-1.41242e-05
7.77926e-08
2.13005e-06
-1.2896e-05
7.21177e-08
2.29906e-06
-1.15962e-05
6.42635e-08
2.47012e-06
-1.02339e-05
5.38706e-08
2.64479e-06
-8.81687e-06
4.01605e-08
2.82855e-06
-7.34846e-06
2.28355e-08
3.02616e-06
-5.825e-06
2.13912e-09
3.23166e-06
-4.2371e-06
-2.15401e-08
3.42217e-06
-2.58571e-06
-4.72524e-08
3.55956e-06
-9.21489e-07
-7.24123e-08
3.59549e-06
6.77289e-07
-9.34429e-08
3.54638e-06
2.01752e-06
-1.06202e-07
3.36074e-06
3.67989e-06
-1.11705e-07
3.05391e-06
5.60832e-06
-1.02254e-07
2.66836e-06
7.94584e-06
-7.16193e-08
2.21666e-06
1.0853e-05
-2.1118e-08
1.64436e-06
1.40512e-05
3.35628e-08
9.67263e-07
1.62433e-05
7.36733e-08
3.10215e-07
1.62132e-05
8.62777e-08
9.36809e-06
3.66085e-08
5.55713e-08
-6.62806e-06
6.90283e-08
1.02312e-07
-1.52563e-05
1.45913e-07
1.25104e-07
-1.9178e-05
1.63857e-07
1.55512e-07
-2.05801e-05
1.5842e-07
2.00412e-07
-2.10815e-05
1.49667e-07
2.60776e-07
-2.12133e-05
1.41172e-07
3.34904e-07
-2.11178e-05
1.33819e-07
4.21497e-07
-2.08457e-05
1.27881e-07
5.1926e-07
-2.04262e-05
1.23375e-07
6.27835e-07
-1.98788e-05
1.19966e-07
7.47291e-07
-1.92151e-05
1.1736e-07
8.77758e-07
-1.84438e-05
1.15402e-07
1.0193e-06
-1.75718e-05
1.13882e-07
1.17189e-06
-1.6605e-05
1.12478e-07
1.33544e-06
-1.55483e-05
1.10725e-07
1.50985e-06
-1.44067e-05
1.08028e-07
1.69512e-06
-1.3185e-05
1.037e-07
1.89109e-06
-1.18893e-05
9.70565e-08
2.09715e-06
-1.05276e-05
8.76237e-08
2.31301e-06
-9.1072e-06
7.44438e-08
2.53984e-06
-7.63217e-06
5.68572e-08
2.78155e-06
-6.10162e-06
3.4896e-08
3.04792e-06
-4.51243e-06
8.93126e-09
3.3452e-06
-2.86287e-06
-2.01381e-08
3.62746e-06
-1.15293e-06
-5.08463e-08
3.80966e-06
5.75823e-07
-8.07487e-08
3.83377e-06
2.09679e-06
-1.03398e-07
3.68375e-06
3.95547e-06
-1.25576e-07
3.3131e-06
6.11789e-06
-1.38928e-07
2.6957e-06
8.69636e-06
-1.3312e-07
1.89274e-06
1.17539e-05
-9.79761e-08
1.06851e-06
1.49174e-05
-4.19706e-08
4.1172e-07
1.68949e-05
5.15015e-09
-1.07382e-08
1.66036e-05
3.19669e-08
9.36062e-06
-3.27435e-09
-2.13493e-09
-6.70522e-06
7.91697e-08
-8.92302e-08
-1.53249e-05
1.55589e-07
-1.88174e-07
-1.92522e-05
1.73154e-07
-2.58053e-07
-2.06793e-05
1.69014e-07
-2.95798e-07
-2.12048e-05
1.61033e-07
-3.09227e-07
-2.13532e-05
1.5333e-07
-3.01338e-07
-2.12729e-05
1.47202e-07
-2.74109e-07
-2.10157e-05
1.42723e-07
-2.29049e-07
-2.06112e-05
1.39941e-07
-1.6669e-07
-2.00797e-05
1.38527e-07
-8.72593e-08
-1.94328e-05
1.3819e-07
8.93226e-09
-1.86788e-05
1.38783e-07
1.21365e-07
-1.78244e-05
1.40114e-07
2.49264e-07
-1.68748e-05
1.41868e-07
3.91597e-07
-1.58343e-05
1.43568e-07
5.47138e-07
-1.47069e-05
1.44601e-07
7.1477e-07
-1.34967e-05
1.44022e-07
8.9348e-07
-1.2209e-05
1.40948e-07
1.08193e-06
-1.08509e-05
1.34825e-07
1.27907e-06
-9.42894e-06
1.2453e-07
1.48431e-06
-7.94662e-06
1.09139e-07
1.69768e-06
-6.40349e-06
8.84121e-08
1.91904e-06
-4.79639e-06
6.25069e-08
2.14373e-06
-3.12006e-06
3.23795e-08
2.33558e-06
-1.34481e-06
-1.03887e-10
2.44884e-06
4.93882e-07
-3.1453e-08
2.40695e-06
2.19592e-06
-5.73783e-08
2.20837e-06
4.23699e-06
-8.30888e-08
1.82029e-06
6.61178e-06
-1.05961e-07
1.23806e-06
9.40022e-06
-1.2176e-07
5.71372e-07
1.25397e-05
-1.1927e-07
6.28807e-08
1.55203e-05
-9.44695e-08
-1.51168e-07
1.71774e-05
-6.85611e-08
-1.58137e-07
1.66577e-05
-4.72472e-08
9.22608e-06
-2.36018e-08
-6.48413e-08
-6.72959e-06
8.90841e-08
-2.02767e-07
-1.53512e-05
1.64108e-07
-3.36981e-07
-1.92952e-05
1.77095e-07
-4.43129e-07
-2.07473e-05
1.74077e-07
-5.19498e-07
-2.12976e-05
1.69074e-07
-5.69868e-07
-2.14667e-05
1.638e-07
-5.94462e-07
-2.14077e-05
1.5928e-07
-5.94024e-07
-2.11724e-05
1.56183e-07
-5.69538e-07
-2.07906e-05
1.54893e-07
-5.2189e-07
-2.02827e-05
1.55295e-07
-4.51658e-07
-1.96602e-05
1.57082e-07
-3.59903e-07
-1.89308e-05
1.60174e-07
-2.48321e-07
-1.81005e-05
1.64461e-07
-1.19186e-07
-1.71737e-05
1.69712e-07
2.48602e-08
-1.61539e-05
1.75521e-07
1.81142e-07
-1.50445e-05
1.81245e-07
3.47279e-07
-1.38488e-05
1.85971e-07
5.20994e-07
-1.25717e-05
1.88941e-07
7.00051e-07
-1.12191e-05
1.89028e-07
8.82477e-07
-9.79614e-06
1.84709e-07
1.06763e-06
-8.30641e-06
1.74562e-07
1.25843e-06
-6.75219e-06
1.57819e-07
1.45906e-06
-5.13135e-06
1.34234e-07
1.65914e-06
-3.4245e-06
1.04258e-07
1.79336e-06
-1.5479e-06
6.87531e-08
1.80348e-06
4.51512e-07
3.21269e-08
1.72799e-06
2.26636e-06
4.93392e-09
1.54275e-06
4.43931e-06
-1.71989e-08
1.29043e-06
6.89678e-06
-3.27962e-08
1.0137e-06
9.72204e-06
-4.52018e-08
7.42612e-07
1.2865e-05
-5.42341e-08
5.04856e-07
1.58104e-05
-5.24827e-08
2.97657e-07
1.74265e-05
-4.20431e-08
1.17749e-07
1.68631e-05
-2.56725e-08
9.34311e-06
7.19254e-10
-1.00667e-07
-6.72351e-06
9.4447e-08
-2.71735e-07
-1.53363e-05
1.56155e-07
-4.29926e-07
-1.92989e-05
1.61875e-07
-5.48072e-07
-2.07935e-05
1.64326e-07
-6.33928e-07
-2.13736e-05
1.6184e-07
-6.89654e-07
-2.157e-05
1.58974e-07
-7.15478e-07
-2.15384e-05
1.56518e-07
-7.11995e-07
-2.1331e-05
1.55069e-07
-6.80158e-07
-2.09776e-05
1.55099e-07
-6.21224e-07
-2.04984e-05
1.56757e-07
-5.3594e-07
-1.99053e-05
1.59868e-07
-4.25766e-07
-1.92056e-05
1.64537e-07
-2.92979e-07
-1.84041e-05
1.70823e-07
-1.4042e-07
-1.75049e-05
1.7867e-07
2.89099e-08
-1.65111e-05
1.87812e-07
2.12311e-07
-1.54256e-05
1.97679e-07
4.06987e-07
-1.42517e-05
2.08122e-07
6.1116e-07
-1.29938e-05
2.17846e-07
8.23829e-07
-1.16575e-05
2.25721e-07
1.04566e-06
-1.02479e-05
2.29864e-07
1.27983e-06
-8.76885e-06
2.28182e-07
1.5344e-06
-7.22585e-06
2.18986e-07
1.82185e-06
-5.61986e-06
2.00938e-07
2.14494e-06
-3.9206e-06
1.72854e-07
2.44046e-06
-1.97558e-06
1.31981e-07
2.61741e-06
1.93378e-07
8.10002e-08
2.70731e-06
2.13708e-06
3.91721e-08
2.6417e-06
4.50361e-06
1.11556e-09
2.4537e-06
7.10219e-06
-1.75944e-08
2.19045e-06
1.00043e-05
-1.92218e-08
1.8444e-06
1.32238e-05
-1.29095e-08
1.36676e-06
1.62922e-05
-4.25006e-09
8.01644e-07
1.7982e-05
9.49519e-09
2.85327e-07
1.73535e-05
2.56728e-08
9.59841e-06
3.00209e-08
-1.35469e-07
-6.67791e-06
8.97351e-08
-3.38376e-07
-1.52602e-05
1.26736e-07
-4.89349e-07
-1.92846e-05
1.366e-07
-5.83957e-07
-2.08409e-05
1.41913e-07
-6.38156e-07
-2.14627e-05
1.43266e-07
-6.58862e-07
-2.16926e-05
1.43304e-07
-6.49189e-07
-2.16914e-05
1.43294e-07
-6.0965e-07
-2.15144e-05
1.43895e-07
-5.41349e-07
-2.11915e-05
1.45512e-07
-4.45854e-07
-2.07423e-05
1.48343e-07
-3.24377e-07
-2.01792e-05
1.52293e-07
-1.78956e-07
-1.95085e-05
1.57529e-07
-1.25611e-08
-1.87348e-05
1.64222e-07
1.70648e-07
-1.78612e-05
1.73048e-07
3.6627e-07
-1.68909e-05
1.84166e-07
5.6986e-07
-1.58269e-05
1.97668e-07
7.77102e-07
-1.4672e-05
2.13007e-07
9.84333e-07
-1.34306e-05
2.29554e-07
1.18985e-06
-1.21093e-05
2.46183e-07
1.39558e-06
-1.07147e-05
2.60999e-07
1.60825e-06
-9.25315e-06
2.71538e-07
1.8404e-06
-7.73337e-06
2.75281e-07
2.11063e-06
-6.15999e-06
2.69798e-07
2.43696e-06
-4.49968e-06
2.52621e-07
2.78936e-06
-2.54544e-06
2.17321e-07
3.08783e-06
-2.6636e-07
1.61107e-07
3.22878e-06
1.89396e-06
1.01994e-07
3.1575e-06
4.54147e-06
3.32432e-08
2.83888e-06
7.44516e-06
-2.45098e-08
2.30348e-06
1.05853e-05
-4.57548e-08
1.63848e-06
1.39256e-05
-3.6944e-08
9.79152e-07
1.6969e-05
-1.75549e-08
4.44571e-07
1.85171e-05
-6.42051e-10
7.32648e-08
1.77052e-05
1.94695e-08
9.64413e-06
2.75365e-08
-1.3947e-07
-6.6092e-06