/*--------------------------------*- C++ -*----------------------------------*\
  =========                 |
  \\      /  F ield         | OpenFOAM: The Open Source CFD Toolbox
   \\    /   O peration     | Website:  https://openfoam.org
    \\  /    A nd           | Version:  11
     \\/     M anipulation  |
\*---------------------------------------------------------------------------*/
FoamFile
{
    format      ascii;
    class       volScalarField;
    location    "750";
    object      T;
}
// * * * * * * * * * * * * * * * * * * * * * * * * * * * * * * * * * * * * * //

dimensions      [0 0 0 1 0 0 0];

internalField   nonuniform List<scalar> 
78750
(
288.576
289.248
289.518
289.636
289.737
289.835
289.926
290.005
290.074
290.135
290.192
290.244
290.293
290.338
290.379
290.418
290.453
290.485
290.515
290.542
290.567
290.589
290.607
290.623
290.635
290.644
290.65
290.649
290.649
290.649
290.65
290.663
290.801
292.203
300.54
288.374
288.773
289.051
289.295
289.526
289.725
289.89
290.031
290.159
290.275
290.381
290.479
290.569
290.651
290.727
290.796
290.858
290.915
290.967
291.012
291.049
291.081
291.107
291.127
291.14
291.145
291.144
291.13
291.102
291.058
290.997
290.998
291.191
293.158
301.396
288.351
288.759
289.153
289.51
289.811
290.041
290.216
290.358
290.479
290.585
290.679
290.764
290.841
290.912
290.977
291.036
291.089
291.137
291.18
291.219
291.252
291.279
291.3
291.315
291.323
291.323
291.318
291.301
291.279
291.251
291.247
291.338
292.011
294.73
302.547
288.407
288.932
289.412
289.772
290.013
290.18
290.313
290.427
290.531
290.628
290.72
290.807
290.889
290.967
291.041
291.109
291.173
291.23
291.281
291.325
291.363
291.394
291.418
291.434
291.441
291.441
291.434
291.421
291.407
291.407
291.455
291.779
292.876
296.108
303.356
288.433
289.003
289.492
289.84
290.078
290.253
290.397
290.525
290.642
290.75
290.85
290.944
291.031
291.111
291.186
291.255
291.317
291.373
291.422
291.464
291.497
291.523
291.541
291.551
291.554
291.551
291.542
291.532
291.528
291.545
291.676
292.165
293.543
297.017
303.818
288.465
289.093
289.61
289.953
290.173
290.335
290.471
290.593
290.704
290.809
290.907
291.001
291.088
291.171
291.248
291.319
291.384
291.441
291.491
291.533
291.567
291.593
291.61
291.62
291.624
291.622
291.619
291.62
291.637
291.711
291.953
292.641
294.267
297.834
304.186
288.479
289.123
289.64
289.979
290.2
290.366
290.507
290.636
290.755
290.867
290.972
291.071
291.164
291.251
291.331
291.405
291.472
291.531
291.583
291.625
291.659
291.684
291.701
291.711
291.714
291.715
291.716
291.725
291.759
291.863
292.17
292.977
294.747
298.349
304.405
288.497
289.17
289.701
290.037
290.253
290.416
290.557
290.685
290.804
290.915
291.021
291.121
291.216
291.304
291.386
291.462
291.53
291.59
291.642
291.686
291.72
291.747
291.765
291.777
291.785
291.793
291.807
291.837
291.907
292.077
292.492
293.452
295.342
298.903
304.634
288.504
289.186
289.717
290.053
290.27
290.437
290.581
290.713
290.837
290.954
291.064
291.169
291.268
291.361
291.447
291.526
291.598
291.661
291.715
291.76
291.796
291.822
291.841
291.854
291.865
291.877
291.898
291.943
292.041
292.272
292.8
293.915
295.916
299.424
304.834
288.516
289.218
289.759
290.095
290.312
290.478
290.624
290.757
290.882
291
291.112
291.219
291.32
291.415
291.503
291.585
291.658
291.722
291.778
291.823
291.86
291.888
291.908
291.924
291.938
291.956
291.985
292.04
292.155
292.419
293.01
294.213
296.273
299.734
304.952
288.524
289.234
289.778
290.115
290.333
290.503
290.652
290.789
290.918
291.04
291.157
291.267
291.373
291.472
291.565
291.65
291.727
291.794
291.852
291.899
291.937
291.965
291.987
292.003
292.02
292.041
292.076
292.138
292.26
292.525
293.109
294.313
296.38
299.828
304.988
288.533
289.26
289.811
290.149
290.369
290.539
290.69
290.829
290.961
291.085
291.205
291.318
291.426
291.528
291.623
291.71
291.789
291.859
291.919
291.968
292.008
292.039
292.062
292.082
292.102
292.131
292.177
292.26
292.424
292.763
293.451
294.756
296.846
300.196
305.134
288.541
289.278
289.831
290.169
290.389
290.562
290.715
290.858
290.992
291.12
291.243
291.36
291.471
291.577
291.676
291.767
291.85
291.924
291.988
292.041
292.084
292.118
292.144
292.165
292.188
292.219
292.269
292.362
292.553
292.95
293.741
295.155
297.264
300.505
305.244
288.549
289.299
289.857
290.195
290.416
290.591
290.746
290.89
291.027
291.158
291.282
291.402
291.516
291.624
291.725
291.819
291.906
291.983
292.05
292.108
292.155
292.193
292.224
292.251
292.28
292.317
292.371
292.466
292.648
293.023
293.791
295.205
297.318
300.548
305.261
288.558
289.317
289.875
290.211
290.432
290.608
290.765
290.911
291.05
291.182
291.309
291.431
291.548
291.659
291.764
291.862
291.952
292.034
292.107
292.17
292.223
292.267
292.304
292.338
292.376
292.426
292.498
292.615
292.823
293.217
293.988
295.398
297.509
300.707
305.33
288.563
289.331
289.892
290.229
290.451
290.627
290.786
290.934
291.074
291.208
291.337
291.46
291.579
291.692
291.799
291.9
291.993
292.079
292.156
292.225
292.284
292.334
292.378
292.42
292.467
292.53
292.626
292.787
293.075
293.591
294.501
295.998
298.052
301.069
305.465
288.57
289.344
289.904
290.24
290.461
290.638
290.798
290.947
291.088
291.224
291.353
291.478
291.598
291.713
291.823
291.927
292.025
292.115
292.198
292.272
292.338
292.397
292.448
292.496
292.546
292.61
292.706
292.875
293.19
293.763
294.756
296.284
298.298
301.207
305.498
288.574
289.354
289.918
290.254
290.476
290.654
290.815
290.965
291.108
291.244
291.375
291.501
291.623
291.74
291.852
291.959
292.06
292.155
292.242
292.322
292.394
292.459
292.519
292.576
292.634
292.698
292.784
292.929
293.209
293.766
294.745
296.288
298.307
301.213
305.496
288.58
289.365
289.927
290.261
290.484
290.663
290.825
290.975
291.118
291.255
291.387
291.514
291.637
291.756
291.872
291.983
292.089
292.189
292.282
292.368
292.448
292.522
292.591
292.661
292.736
292.822
292.93
293.087
293.347
293.824
294.761
296.311
298.341
301.264
305.529
288.582
289.37
289.929
290.264
290.486
290.666
290.828
290.978
291.121
291.258
291.39
291.517
291.64
291.759
291.876
291.989
292.1
292.208
292.312
292.407
292.496
292.578
292.658
292.74
292.834
292.951
293.109
293.345
293.713
294.311
295.287
296.83
298.787
301.536
305.638
288.584
289.37
289.929
290.263
290.486
290.666
290.828
290.978
291.122
291.258
291.39
291.517
291.64
291.76
291.876
291.989
292.1
292.209
292.315
292.42
292.519
292.612
292.701
292.79
292.889
293.011
293.184
293.453
293.885
294.567
295.625
297.161
299.026
301.658
305.66
288.583
289.366
289.921
290.255
290.479
290.659
290.821
290.972
291.115
291.251
291.383
291.51
291.633
291.753
291.871
291.985
292.098
292.208
292.315
292.421
292.527
292.633
292.737
292.838
292.944
293.064
293.22
293.465
293.889
294.573
295.64
297.182
299.042
301.664
305.656
288.581
289.357
289.909
290.244
290.468
290.648
290.809
290.958
291.1
291.235
291.366
291.492
291.615
291.735
291.852
291.968
292.083
292.196
292.307
292.417
292.526
292.635
292.748
292.871
293.007
293.156
293.33
293.566
293.937
294.586
295.652
297.2
299.081
301.704
305.677
288.577
289.346
289.897
290.234
290.46
290.64
290.801
290.95
291.091
291.226
291.356
291.482
291.605
291.725
291.842
291.957
292.07
292.182
292.293
292.404
292.516
292.629
292.747
292.877
293.032
293.227
293.471
293.797
294.263
294.961
296.047
297.616
299.43
301.935
305.764
288.572
289.333
289.884
290.227
290.456
290.637
290.798
290.948
291.089
291.224
291.355
291.481
291.604
291.725
291.842
291.958
292.071
292.182
292.291
292.399
292.508
292.618
292.731
292.856
293.007
293.203
293.464
293.829
294.36
295.137
296.263
297.79
299.539
301.974
305.759
288.571
289.33
289.882
290.227
290.458
290.64
290.802
290.953
291.095
291.233
291.366
291.495
291.622
291.746
291.868
291.987
292.102
292.214
292.322
292.425
292.527
292.63
292.736
292.853
292.993
293.171
293.408
293.759
294.288
295.07
296.206
297.745
299.506
301.949
305.733
288.573
289.336
289.893
290.244
290.48
290.665
290.83
290.983
291.13
291.271
291.408
291.542
291.674
291.805
291.933
292.06
292.18
292.294
292.4
292.499
292.594
292.688
292.787
292.897
293.033
293.207
293.434
293.758
294.266
295.048
296.199
297.746
299.512
301.957
305.745
288.581
289.357
289.923
290.279
290.518
290.708
290.877
291.034
291.184
291.33
291.472
291.613
291.752
291.89
292.026
292.159
292.284
292.401
292.506
292.601
292.689
292.774
292.861
292.962
293.093
293.274
293.526
293.888
294.417
295.208
296.373
297.949
299.721
302.137
305.833
288.593
289.385
289.96
290.321
290.564
290.758
290.931
291.094
291.25
291.402
291.551
291.698
291.846
291.993
292.138
292.279
292.412
292.533
292.639
292.731
292.812
292.888
292.965
293.052
293.167
293.333
293.584
293.981
294.583
295.451
296.656
298.196
299.901
302.249
305.858
288.604
289.417
290.002
290.367
290.613
290.812
290.991
291.16
291.323
291.483
291.641
291.799
291.957
292.115
292.271
292.423
292.564
292.689
292.797
292.886
292.963
293.033
293.104
293.18
293.272
293.399
293.602
293.958
294.542
295.415
296.623
298.162
299.871
302.219
305.835
288.62
289.455
290.048
290.414
290.663
290.866
291.05
291.226
291.396
291.563
291.73
291.897
292.064
292.233
292.402
292.565
292.715
292.846
292.955
293.046
293.123
293.196
293.269
293.346
293.434
293.542
293.696
293.973
294.516
295.372
296.592
298.157
299.871
302.22
305.837
288.633
289.483
290.079
290.445
290.695
290.901
291.09
291.271
291.447
291.62
291.792
291.963
292.138
292.316
292.495
292.668
292.829
292.971
293.09
293.187
293.271
293.35
293.432
293.521
293.625
293.754
293.927
294.188
294.633
295.428
296.651
298.242
299.973
302.313
305.899
288.644
289.504
290.101
290.465
290.714
290.922
291.114
291.298
291.477
291.652
291.827
292.003
292.181
292.363
292.546
292.727
292.899
293.054
293.186
293.295
293.39
293.478
293.569
293.669
293.79
293.949
294.178
294.528
295.07
295.908
297.12
298.641
300.311
302.596
306.007
288.649
289.514
290.111
290.475
290.725
290.935
291.129
291.314
291.495
291.673
291.849
292.026
292.205
292.387
292.572
292.759
292.94
293.107
293.254
293.378
293.485
293.584
293.68
293.783
293.903
294.063
294.302
294.684
295.283
296.164
297.37
298.834
300.441
302.664
306.007
288.65
289.515
290.112
290.476
290.728
290.939
291.134
291.321
291.503
291.682
291.859
292.036
292.216
292.399
292.586
292.776
292.965
293.145
293.306
293.444
293.563
293.672
293.777
293.886
294.008
294.158
294.373
294.72
295.299
296.188
297.401
298.862
300.454
302.661
305.996
288.653
289.52
290.115
290.478
290.73
290.941
291.137
291.325
291.507
291.687
291.865
292.043
292.223
292.407
292.597
292.793
292.992
293.184
293.357
293.507
293.637
293.756
293.872
293.994
294.13
294.294
294.514
294.838
295.357
296.202
297.415
298.886
300.482
302.673
306.005
288.655
289.523
290.115
290.478
290.73
290.941
291.137
291.325
291.507
291.687
291.865
292.043
292.224
292.408
292.597
292.794
292.996
293.198
293.392
293.566
293.712
293.84
293.965
294.096
294.248
294.443
294.708
295.085
295.641
296.476
297.669
299.097
300.656
302.83
306.069
288.655
289.516
290.103
290.464
290.716
290.927
291.122
291.309
291.491
291.67
291.848
292.026
292.205
292.387
292.575
292.771
292.975
293.185
293.391
293.583
293.753
293.904
294.04
294.178
294.337
294.545
294.841
295.269
295.888
296.762
297.93
299.286
300.794
302.916
306.085
288.648
289.495
290.078
290.439
290.69
290.899
291.091
291.275
291.453
291.629
291.803
291.976
292.149
292.325
292.505
292.692
292.891
293.102
293.323
293.543
293.746
293.926
294.085
294.234
294.395
294.599
294.886
295.311
295.945
296.835
297.996
299.322
300.793
302.888
306.064
288.64
289.479
290.06
290.424
290.675
290.883
291.074
291.257
291.434
291.607
291.778
291.948
292.12
292.292
292.465
292.641
292.824
293.019
293.23
293.456
293.686
293.904
294.096
294.269
294.444
294.648
294.918
295.315
295.933
296.819
297.986
299.322
300.789
302.857
306.047
288.634
289.465
290.047
290.414
290.668
290.877
291.068
291.25
291.427
291.601
291.773
291.945
292.117
292.29
292.462
292.635
292.81
292.987
293.177
293.385
293.614
293.852
294.081
294.292
294.5
294.729
295.008
295.387
295.951
296.821
297.989
299.329
300.794
302.862
306.053
288.629
289.457
290.043
290.412
290.666
290.875
291.065
291.247
291.424
291.598
291.771
291.944
292.117
292.292
292.467
292.64
292.813
292.986
293.164
293.353
293.56
293.793
294.04
294.286
294.536
294.815
295.149
295.583
296.183
297.028
298.178
299.494
300.929
302.978
306.098
288.628
289.457
290.043
290.414
290.67
290.879
291.071
291.254
291.434
291.611
291.788
291.966
292.146
292.327
292.508
292.685
292.857
293.024
293.19
293.362
293.551
293.765
294.001
294.255
294.532
294.845
295.229
295.728
296.396
297.289
298.417
299.656
301.029
303.034
306.11
288.63
289.467
290.061
290.436
290.695
290.908
291.102
291.289
291.472
291.654
291.836
292.02
292.207
292.397
292.586
292.772
292.949
293.116
293.274
293.43
293.594
293.778
293.987
294.221
294.492
294.815
295.211
295.724
296.411
297.316
298.434
299.651
301.002
302.989
306.082
288.637
289.488
290.089
290.466
290.727
290.941
291.139
291.328
291.513
291.698
291.884
292.073
292.266
292.464
292.665
292.863
293.052
293.226
293.386
293.537
293.689
293.852
294.032
294.237
294.487
294.795
295.181
295.687
296.371
297.279
298.408
299.644
300.987
302.941
306.061
288.643
289.503
290.107
290.485
290.747
290.964
291.163
291.355
291.544
291.732
291.923
292.118
292.319
292.527
292.74
292.952
293.155
293.341
293.509
293.664
293.814
293.97
294.138
294.326
294.548
294.829
295.191
295.689
296.37
297.28
298.413
299.651
300.994
302.948
306.069
288.651
289.522
290.131
290.509
290.772
290.991
291.193
291.387
291.579
291.771
291.966
292.165
292.373
292.589
292.812
293.036
293.25
293.449
293.627
293.789
293.941
294.095
294.261
294.451
294.683
294.977
295.353
295.84
296.51
297.423
298.568
299.794
301.13
303.082
306.128
288.657
289.537
290.149
290.527
290.791
291.011
291.214
291.409
291.602
291.794
291.99
292.191
292.4
292.62
292.848
293.081
293.309
293.523
293.718
293.892
294.052
294.207
294.369
294.554
294.786
295.092
295.499
296.041
296.753
297.671
298.774
299.931
301.221
303.15
306.141
288.661
289.543
290.155
290.533
290.797
291.016
291.22
291.416
291.609
291.803
291.998
292.199
292.408
292.627
292.857
293.095
293.333
293.562
293.775
293.968
294.142
294.302
294.458
294.628
294.842
295.131
295.527
296.066
296.777
297.692
298.776
299.922
301.195
303.11
306.118
288.664
289.55
290.164
290.543
290.806
291.026
291.23
291.427
291.62
291.813
292.008
292.207
292.413
292.63
292.858
293.097
293.339
293.578
293.807
294.019
294.214
294.389
294.553
294.722
294.918
295.174
295.535
296.06
296.765
297.681
298.776
299.918
301.185
303.077
306.096
288.665
289.554
290.171
290.551
290.815
291.036
291.24
291.436
291.628
291.82
292.014
292.212
292.419
292.636
292.865
293.104
293.348
293.592
293.83
294.058
294.274
294.475
294.664
294.853
295.054
295.291
295.606
296.07
296.766
297.683
298.78
299.926
301.187
303.081
306.1
288.667
289.56
290.179
290.561
290.826
291.046
291.25
291.446
291.64
291.832
292.027
292.227
292.435
292.653
292.883
293.123
293.369
293.615
293.857
294.093
294.323
294.548
294.769
294.994
295.231
295.494
295.816
296.251
296.88
297.773
298.865
299.977
301.225
303.144
306.133
288.671
289.571
290.195
290.578
290.843
291.064
291.269
291.466
291.66
291.853
292.048
292.248
292.456
292.676
292.907
293.149
293.397
293.645
293.89
294.13
294.367
294.607
294.853
295.115
295.402
295.724
296.106
296.591
297.244
298.114
299.137
300.171
301.376
303.282
306.182
288.673
289.578
290.205
290.591
290.858
291.08
291.284
291.481
291.674
291.866
292.061
292.261
292.47
292.689
292.922
293.167
293.419
293.67
293.917
294.157
294.395
294.638
294.894
295.176
295.499
295.876
296.327
296.88
297.573
298.424
299.376
300.335
301.481
303.34
306.19
288.675
289.584
290.215
290.602
290.869
291.09
291.294
291.491
291.683
291.876
292.07
292.27
292.478
292.697
292.931
293.178
293.433
293.688
293.937
294.176
294.41
294.645
294.893
295.171
295.495
295.887
296.367
296.958
297.68
298.528
299.445
300.365
301.479
303.32
306.173
288.678
289.594
290.23
290.62
290.888
291.109
291.312
291.508
291.699
291.891
292.084
292.282
292.489
292.708
292.941
293.19
293.45
293.712
293.967
294.209
294.437
294.661
294.898
295.169
295.486
295.869
296.341
296.931
297.66
298.516
299.435
300.354
301.448
303.247
306.132
288.68
289.601
290.242
290.634
290.903
291.124
291.327
291.521
291.712
291.902
292.093
292.289
292.494
292.711
292.944
293.193
293.457
293.727
293.993
294.248
294.486
294.715
294.949
295.202
295.497
295.868
296.337
296.928
297.659
298.515
299.436
300.354
301.448
303.243
306.131
288.682
289.61
290.256
290.652
290.922
291.143
291.346
291.54
291.729
291.918
292.109
292.305
292.509
292.725
292.956
293.204
293.467
293.741
294.016
294.285
294.541
294.787
295.035
295.295
295.581
295.918
296.353
296.932
297.664
298.528
299.459
300.372
301.457
303.252
306.139
288.687
289.626
290.279
290.677
290.948
291.171
291.374
291.568
291.758
291.947
292.138
292.334
292.538
292.754
292.985
293.234
293.498
293.772
294.051
294.329
294.6
294.868
295.14
295.422
295.726
296.075
296.505
297.06
297.782
298.648
299.554
300.445
301.524
303.318
306.168
288.692
289.642
290.302
290.704
290.977
291.201
291.405
291.599
291.789
291.979
292.171
292.368
292.575
292.794
293.029
293.282
293.547
293.821
294.098
294.374
294.652
294.935
295.231
295.545
295.886
296.27
296.724
297.287
297.988
298.805
299.661
300.518
301.58
303.366
306.184
288.699
289.66
290.326
290.73
291.006
291.231
291.435
291.63
291.82
292.01
292.203
292.401
292.609
292.831
293.07
293.327
293.599
293.876
294.151
294.423
294.695
294.978
295.282
295.616
295.988
296.409
296.895
297.473
298.16
298.938
299.753
300.581
301.62
303.386
306.184
288.704
289.675
290.347
290.755
291.032
291.258
291.463
291.657
291.847
292.037
292.228
292.426
292.633
292.853
293.09
293.349
293.627
293.913
294.193
294.463
294.73
295.004
295.304
295.642
296.031
296.477
296.991
297.589
298.277
299.037
299.823
300.629
301.652
303.393
306.18
288.708
289.687
290.365
290.776
291.056
291.284
291.489
291.684
291.874
292.063
292.254
292.451
292.655
292.871
293.104
293.357
293.634
293.927
294.22
294.498
294.765
295.033
295.325
295.658
296.05
296.509
297.042
297.656
298.348
299.095
299.861
300.649
301.651
303.383
306.172
288.711
289.696
290.38
290.795
291.078
291.308
291.515
291.711
291.901
292.09
292.281
292.476
292.677
292.888
293.113
293.358
293.628
293.923
294.226
294.52
294.797
295.066
295.352
295.676
296.059
296.516
297.055
297.672
298.365
299.108
299.865
300.644
301.637
303.355
306.154
288.713
289.704
290.394
290.815
291.101
291.332
291.541
291.738
291.93
292.12
292.311
292.505
292.704
292.909
293.124
293.357
293.612
293.901
294.212
294.523
294.818
295.097
295.38
295.694
296.065
296.517
297.053
297.673
298.367
299.109
299.867
300.645
301.634
303.344
306.146
288.715
289.715
290.416
290.843
291.132
291.366
291.577
291.777
291.971
292.163
292.356
292.551
292.747
292.945
293.149
293.364
293.603
293.872
294.179
294.51
294.834
295.137
295.43
295.739
296.094
296.525
297.054
297.676
298.381
299.133
299.89
300.658
301.639
303.345
306.146
288.719
289.73
290.444
290.88
291.175
291.414
291.629
291.833
292.032
292.228
292.425
292.622
292.817
293.01
293.203
293.401
293.616
293.864
294.152
294.482
294.832
295.17
295.491
295.814
296.168
296.59
297.105
297.726
298.434
299.186
299.936
300.695
301.668
303.366
306.153
288.724
289.752
290.481
290.926
291.228
291.474
291.695
291.906
292.112
292.318
292.524
292.729
292.929
293.12
293.303
293.485
293.677
293.895
294.155
294.468
294.819
295.182
295.538
295.889
296.261
296.687
297.2
297.813
298.512
299.252
299.988
300.737
301.702
303.388
306.16
288.735
289.786
290.532
290.984
291.291
291.542
291.771
291.989
292.205
292.423
292.642
292.86
293.067
293.259
293.436
293.606
293.78
293.975
294.206
294.491
294.828
295.198
295.577
295.957
296.353
296.795
297.316
297.928
298.619
299.343
300.062
300.798
301.752
303.425
306.173
288.753
289.837
290.601
291.06
291.373
291.63
291.865
292.092
292.32
292.552
292.787
293.019
293.234
293.427
293.598
293.757
293.916
294.092
294.302
294.562
294.879
295.245
295.637
296.038
296.456
296.917
297.449
298.063
298.742
299.447
300.148
300.874
301.821
303.48
306.195
288.773
289.887
290.66
291.123
291.439
291.702
291.944
292.18
292.42
292.668
292.92
293.167
293.393
293.591
293.762
293.915
294.065
294.227
294.419
294.656
294.95
295.303
295.698
296.113
296.547
297.02
297.554
298.16
298.821
299.505
300.19
300.908
301.854
303.511
306.207
288.788
289.919
290.698
291.16
291.477
291.742
291.989
292.232
292.478
292.732
292.992
293.248
293.487
293.696
293.876
294.035
294.186
294.344
294.523
294.741
295.02
295.365
295.76
296.181
296.624
297.1
297.63
298.224
298.869
299.539
300.214
300.926
301.867
303.519
306.208
288.8
289.946
290.729
291.19
291.507
291.774
292.021
292.261
292.5
292.746
293.001
293.26
293.512
293.743
293.938
294.106
294.261
294.415
294.584
294.787
295.047
295.378
295.774
296.215
296.683
297.175
297.714
298.305
298.944
299.604
300.27
300.972
301.904
303.541
306.21
288.802
289.95
290.732
291.194
291.511
291.777
292.024
292.262
292.499
292.741
292.991
293.25
293.509
293.753
293.972
294.159
294.323
294.478
294.638
294.824
295.058
295.362
295.745
296.194
296.682
297.205
297.764
298.364
298.996
299.642
300.296
300.992
301.922
303.551
306.209
288.794
289.932
290.719
291.185
291.504
291.769
292.013
292.248
292.479
292.713
292.956
293.211
293.475
293.734
293.973
294.183
294.364
294.529
294.69
294.865
295.078
295.352
295.704
296.137
296.636
297.179
297.752
298.357
298.986
299.626
300.276
300.974
301.908
303.539
306.199
288.786
289.923
290.713
291.183
291.503
291.769
292.013
292.248
292.479
292.712
292.952
293.202
293.461
293.721
293.969
294.194
294.391
294.567
294.734
294.908
295.109
295.36
295.688
296.095
296.576
297.116
297.697
298.308
298.939
299.581
300.234
300.932
301.866
303.5
306.179
288.786
289.924
290.722
291.197
291.52
291.787
292.033
292.267
292.498
292.729
292.966
293.214
293.472
293.731
293.982
294.213
294.421
294.607
294.782
294.961
295.161
295.4
295.7
296.092
296.563
297.098
297.679
298.293
298.929
299.575
300.229
300.926
301.858
303.492
306.176
288.789
289.939
290.747
291.228
291.555
291.824
292.07
292.306
292.537
292.769
293.009
293.261
293.521
293.781
294.03
294.259
294.469
294.661
294.843
295.03
295.239
295.484
295.777
296.131
296.57
297.099
297.68
298.295
298.932
299.578
300.231
300.927
301.859
303.496
306.179
288.791
289.947
290.761
291.247
291.576
291.848
292.097
292.336
292.57
292.807
293.052
293.31
293.579
293.846
294.095
294.32
294.523
294.71
294.892
295.082
295.3
295.562
295.879
296.257
296.695
297.19
297.753
298.366
299.004
299.646
300.288
300.974
301.902
303.538
306.198
288.796
289.965
290.787
291.273
291.603
291.876
292.126
292.365
292.6
292.835
293.079
293.339
293.614
293.894
294.156
294.384
294.581
294.757
294.926
295.104
295.311
295.568
295.89
296.283
296.739
297.251
297.814
298.416
299.039
299.665
300.298
300.981
301.906
303.536
306.194
288.799
289.98
290.813
291.301
291.631
291.904
292.154
292.391
292.621
292.852
293.092
293.349
293.627
293.917
294.194
294.436
294.638
294.808
294.963
295.121
295.302
295.523
295.808
296.18
296.64
297.167
297.737
298.335
298.946
299.561
300.192
300.875
301.789
303.402
306.118
288.801
290
290.843
291.334
291.666
291.941
292.191
292.428
292.658
292.89
293.131
293.39
293.673
293.974
294.265
294.518
294.726
294.897
295.044
295.184
295.333
295.519
295.759
296.069
296.468
296.963
297.535
298.154
298.802
299.464
300.128
300.818
301.721
303.329
306.089
288.811
290.043
290.894
291.384
291.718
291.995
292.246
292.484
292.715
292.948
293.191
293.459
293.761
294.092
294.415
294.689
294.901
295.071
295.213
295.34
295.466
295.607
295.794
296.071
296.454
296.939
297.514
298.149
298.807
299.474
300.133
300.82
301.726
303.342
306.103
288.832
290.094
290.945
291.429
291.761
292.039
292.292
292.53
292.762
292.993
293.235
293.504
293.817
294.184
294.571
294.899
295.145
295.33
295.477
295.604
295.725
295.858
296.024
296.248
296.577
297.043
297.635
298.301
298.979
299.622
300.248
300.924
301.844
303.481
306.183
288.848
290.132
290.982
291.46
291.79
292.067
292.318
292.554
292.784
293.013
293.253
293.519
293.832
294.208
294.63
295.039
295.356
295.593
295.774
295.925
296.07
296.231
296.431
296.699
297.063
297.539
298.106
298.712
299.313
299.9
300.492
301.15
302.066
303.691
306.277
288.863
290.167
291.022
291.501
291.831
292.109
292.359
292.595
292.821
293.044
293.272
293.519
293.809
294.173
294.618
295.085
295.489
295.807
296.049
296.246
296.431
296.634
296.881
297.195
297.591
298.065
298.589
299.129
299.666
300.199
300.753
301.386
302.281
303.863
306.338
288.87
290.179
291.036
291.517
291.848
292.126
292.377
292.611
292.835
293.054
293.274
293.503
293.763
294.083
294.497
294.984
295.464
295.874
296.203
296.471
296.713
296.962
297.245
297.581
297.982
298.436
298.922
299.416
299.908
300.407
300.938
301.558
302.439
303.976
306.368
288.871
290.186
291.053
291.538
291.871
292.15
292.401
292.634
292.856
293.071
293.284
293.5
293.724
293.991
294.338
294.784
295.295
295.794
296.206
296.547
296.855
297.158
297.479
297.834
298.23
298.662
299.114
299.572
300.037
300.52
301.039
301.648
302.513
304.012
306.368
288.872
290.192
291.07
291.562
291.9
292.181
292.433
292.666
292.887
293.099
293.304
293.508
293.718
293.94
294.215
294.586
295.067
295.599
296.105
296.529
296.88
297.22
297.569
297.94
298.336
298.752
299.183
299.625
300.079
300.554
301.065
301.665
302.522
304.011
306.359
288.869
290.192
291.08
291.581
291.923
292.208
292.462
292.697
292.919
293.13
293.334
293.531
293.727
293.93
294.15
294.421
294.799
295.289
295.839
296.364
296.821
297.21
297.569
297.943
298.339
298.753
299.183
299.624
300.078
300.551
301.061
301.658
302.51
303.987
306.339
288.866
290.193
291.098
291.609
291.957
292.245
292.502
292.739
292.962
293.174
293.376
293.571
293.76
293.947
294.142
294.362
294.629
295.002
295.482
296.02
296.544
297.023
297.463
297.875
298.283
298.699
299.127
299.567
300.02
300.496
301.008
301.602
302.445
303.914
306.301
288.866
290.202
291.12
291.641
291.994
292.286
292.546
292.786
293.011
293.224
293.426
293.62
293.807
293.988
294.169
294.358
294.575
294.847
295.213
295.677
296.199
296.722
297.217
297.684
298.134
298.58
299.03
299.489
299.96
300.449
300.969
301.564
302.397
303.858
306.273
288.868
290.216
291.149
291.679
292.038
292.335
292.6
292.843
293.071
293.285
293.488
293.681
293.866
294.045
294.22
294.398
294.589
294.815
295.103
295.485
295.96
296.481
297.005
297.51
297.998
298.475
298.948
299.423
299.905
300.404
300.932
301.531
302.363
303.822
306.26
288.875
290.24
291.187
291.725
292.09
292.392
292.662
292.91
293.141
293.358
293.562
293.755
293.938
294.114
294.286
294.456
294.634
294.836
295.085
295.412
295.835
296.334
296.859
297.379
297.884
298.377
298.867
299.359
299.859
300.373
300.912
301.516
302.348
303.807
306.257
288.881
290.263
291.224
291.77
292.142
292.449
292.724
292.977
293.212
293.431
293.636
293.83
294.014
294.189
294.357
294.521
294.69
294.875
295.097
295.383
295.759
296.227
296.748
297.278
297.795
298.301
298.803
299.308
299.82
300.343
300.89
301.498
302.332
303.794
306.252
288.889
290.288
291.264
291.817
292.195
292.509
292.789
293.046
293.284
293.504
293.711
293.905
294.088
294.263
294.43
294.591
294.754
294.927
295.128
295.381
295.709
296.125
296.618
297.15
297.684
298.209
298.729
299.249
299.776
300.315
300.875
301.491
302.33
303.792
306.25
288.896
290.315
291.306
291.869
292.253
292.573
292.859
293.121
293.362
293.584
293.791
293.984
294.166
294.339
294.505
294.665
294.824
294.991
295.179
295.408
295.707
296.086
296.539
297.048
297.585
298.129
298.674
299.221
299.767
300.314
300.875
301.492
302.331
303.795
306.252
288.907
290.349
291.357
291.929
292.32
292.648
292.942
293.209
293.453
293.677
293.885
294.077
294.257
294.426
294.587
294.743
294.898
295.061
295.244
295.464
295.739
296.092
296.534
297.034
297.569
298.118
298.671
299.222
299.768
300.316
300.881
301.498
302.339
303.805
306.256
288.919
290.388
291.412
291.993
292.393
292.729
293.03
293.302
293.55
293.776
293.986
294.18
294.36
294.527
294.684
294.834
294.983
295.14
295.317
295.532
295.801
296.139
296.553
297.04
297.572
298.125
298.685
299.243
299.799
300.353
300.916
301.533
302.374
303.835
306.267
288.931
290.426
291.466
292.056
292.465
292.811
293.119
293.395
293.644
293.872
294.082
294.278
294.46
294.628
294.783
294.929
295.072
295.222
295.392
295.598
295.857
296.186
296.595
297.07
297.592
298.14
298.697
299.251
299.8
300.352
300.917
301.539
302.382
303.843
306.269
288.942
290.465
291.521
292.121
292.541
292.898
293.214
293.494
293.745
293.972
294.183
294.38
294.564
294.733
294.886
295.027
295.162
295.3
295.457
295.647
295.889
296.201
296.593
297.053
297.57
298.122
298.684
299.243
299.795
300.343
300.904
301.523
302.366
303.83
306.261
288.956
290.515
291.583
292.191
292.621
292.988
293.31
293.594
293.846
294.076
294.291
294.496
294.69
294.868
295.025
295.164
295.293
295.419
295.557
295.721
295.934
296.217
296.593
297.05
297.567
298.12
298.684
299.243
299.795
300.343
300.904
301.521
302.363
303.828
306.26
288.975
290.567
291.643
292.257
292.696
293.072
293.399
293.685
293.936
294.167
294.387
294.604
294.817
295.016
295.192
295.344
295.481
295.609
295.737
295.881
296.06
296.296
296.618
297.056
297.57
298.123
298.688
299.251
299.802
300.347
300.905
301.523
302.366
303.833
306.27
288.995
290.62
291.7
292.319
292.769
293.154
293.486
293.771
294.019
294.245
294.466
294.692
294.925
295.148
295.349
295.531
295.695
295.843
295.984
296.133
296.305
296.525
296.814
297.191
297.664
298.203
298.762
299.312
299.851
300.388
300.941
301.565
302.426
303.911
306.315
289.013
290.661
291.748
292.376
292.836
293.229
293.566
293.85
294.092
294.31
294.524
294.748
294.987
295.23
295.466
295.692
295.896
296.077
296.246
296.417
296.609
296.84
297.134
297.504
297.951
298.45
298.968
299.485
299.994
300.508
301.048
301.664
302.524
304.006
306.356
289.027
290.691
291.785
292.42
292.891
293.295
293.638
293.921
294.156
294.362
294.561
294.771
295.004
295.252
295.512
295.779
296.029
296.251
296.456
296.66
296.88
297.132
297.435
297.8
298.225
298.691
299.175
299.659
300.142
300.634
301.155
301.752
302.593
304.047
306.361
289.032
290.702
291.806
292.451
292.932
293.346
293.696
293.981