/*--------------------------------*- C++ -*----------------------------------*\
  =========                 |
  \\      /  F ield         | OpenFOAM: The Open Source CFD Toolbox
   \\    /   O peration     | Website:  https://openfoam.org
    \\  /    A nd           | Version:  11
     \\/     M anipulation  |
\*---------------------------------------------------------------------------*/
FoamFile
{
    format      ascii;
    class       volVectorField;
    location    "750";
    object      U;
}
// * * * * * * * * * * * * * * * * * * * * * * * * * * * * * * * * * * * * * //

dimensions      [0 1 -1 0 0 0 0];

internalField   nonuniform List<vector> 
78750
(
(-0.00162467 0.0108436 0.0353807)
(-0.00868901 0.004834 0.0629965)
(-0.0140311 -0.00636172 0.0633505)
(-0.0164576 -0.0172276 0.0604114)
(-0.0168276 -0.0304553 0.0569438)
(-0.0135642 -0.0402824 0.053941)
(-0.00866208 -0.0470976 0.0516769)
(-0.00245056 -0.0515636 0.0499734)
(0.00444296 -0.0543442 0.0486664)
(0.0116646 -0.0558032 0.0477069)
(0.0190775 -0.056315 0.0469818)
(0.0263712 -0.0561888 0.0464462)
(0.0335703 -0.0553578 0.0460404)
(0.0404499 -0.0540769 0.0457002)
(0.0469716 -0.0524212 0.0454057)
(0.0530941 -0.0504549 0.0451435)
(0.0585853 -0.0482378 0.0448662)
(0.0638038 -0.0452984 0.0449848)
(0.0677365 -0.0443 0.0433948)
(0.071827 -0.0414318 0.0432603)
(0.0746475 -0.0386874 0.0433233)
(0.077385 -0.0328382 0.0436181)
(0.0783184 -0.0302676 0.0437342)
(0.0791448 -0.0265824 0.0438329)
(0.0787304 -0.0225479 0.043994)
(0.0773015 -0.0182971 0.0442386)
(0.0749165 -0.0138942 0.0446377)
(0.0712767 -0.00918651 0.0453008)
(0.0662047 -0.00394619 0.0460745)
(0.0601128 0.00172558 0.0470323)
(0.0525369 0.00861338 0.0482427)
(0.0431077 0.0141883 0.0509491)
(0.0329985 0.01922 0.0546811)
(0.0195085 0.0268921 0.0571912)
(0.00634599 0.0320089 0.0399291)
(-1.39338e-05 0.0155096 0.0227198)
(0.000320341 0.0133277 0.0435321)
(0.00192723 -0.00764448 0.045687)
(0.00453878 -0.0336221 0.0423342)
(0.00958361 -0.0584263 0.0369571)
(0.0140723 -0.078021 0.0323143)
(0.0187324 -0.0912797 0.0289637)
(0.0231592 -0.0986081 0.0268737)
(0.0274765 -0.102622 0.0254306)
(0.0313355 -0.104215 0.0243811)
(0.0358293 -0.103537 0.0235071)
(0.038756 -0.102386 0.0231319)
(0.0425621 -0.0997109 0.0227782)
(0.0455577 -0.0961005 0.0225477)
(0.0483183 -0.0917375 0.0224047)
(0.0507734 -0.0867319 0.0223351)
(0.0529262 -0.0812178 0.0222993)
(0.0545316 -0.0750583 0.0224275)
(0.0564055 -0.0668186 0.0240262)
(0.0566001 -0.0610417 0.0236547)
(0.0568676 -0.0548751 0.023166)
(0.0571035 -0.0476916 0.0230885)
(0.0565527 -0.0398088 0.0232791)
(0.055605 -0.0313064 0.023778)
(0.0541567 -0.022267 0.0244936)
(0.0523075 -0.0133916 0.0248044)
(0.050283 -0.00382722 0.0252813)
(0.046338 0.0107867 0.0267177)
(0.0431812 0.0190651 0.0276872)
(0.0385868 0.0295435 0.0293347)
(0.0335867 0.0419705 0.0322797)
(0.0268378 0.0576414 0.0357444)
(0.0198023 0.0738001 0.0405127)
(0.0102761 0.0908282 0.0447521)
(0.00191708 0.0845315 0.0291612)
(-0.000271385 -0.00600153 0.0146377)
(0.00212496 -0.0340252 0.0257886)
(0.00651186 -0.0738571 0.0243072)
(0.0114846 -0.106255 0.0209953)
(0.0159469 -0.126959 0.0187867)
(0.0193898 -0.136292 0.018032)
(0.0218275 -0.139453 0.0178848)
(0.0240138 -0.140198 0.0177247)
(0.0255287 -0.13939 0.0176838)
(0.0271455 -0.136977 0.0177125)
(0.0284074 -0.133472 0.0177813)
(0.0296498 -0.129109 0.0178281)
(0.0306927 -0.124173 0.0178626)
(0.0316502 -0.118682 0.0178844)
(0.0325028 -0.112713 0.0178955)
(0.0332512 -0.106312 0.0178975)
(0.0338682 -0.0995041 0.0178952)
(0.0343922 -0.0922777 0.0179057)
(0.034575 -0.0842526 0.0180526)
(0.0353036 -0.0743971 0.018832)
(0.0352001 -0.0650973 0.0193274)
(0.0345846 -0.0562942 0.0198223)
(0.0340751 -0.0471812 0.0204215)
(0.0331518 -0.0376718 0.0211576)
(0.0319413 -0.0279354 0.0220088)
(0.0305412 -0.0181805 0.0229304)
(0.0287021 -0.00630094 0.0243707)
(0.0265007 0.00790181 0.0260914)
(0.0248927 0.0164295 0.027053)
(0.0222974 0.0295668 0.0286985)
(0.0190458 0.0468005 0.0307114)
(0.0152917 0.066864 0.0339844)
(0.0107542 0.0882841 0.0376067)
(0.00500791 0.108696 0.0394012)
(0.000471548 0.092825 0.0225627)
(-3.32259e-05 -0.0154705 0.00964974)
(0.00246814 -0.0617596 0.0151129)
(0.00606226 -0.102525 0.015072)
(0.0091293 -0.125664 0.0145957)
(0.0113545 -0.136447 0.0141623)
(0.0129791 -0.141657 0.0136283)
(0.0143819 -0.144335 0.0130315)
(0.0157707 -0.145192 0.0124727)
(0.016958 -0.144738 0.0120643)
(0.0181987 -0.143141 0.0116325)
(0.0193332 -0.140566 0.0112501)
(0.0204273 -0.137113 0.0109192)
(0.0214587 -0.132825 0.0106395)
(0.0223981 -0.12775 0.0104102)
(0.023227 -0.121916 0.010233)
(0.0239218 -0.115352 0.0101079)
(0.0244624 -0.108101 0.0100275)
(0.0248053 -0.100239 0.00997465)
(0.0250122 -0.0918692 0.00993212)
(0.0249818 -0.0829642 0.0098978)
(0.0249507 -0.0729087 0.0102399)
(0.0247401 -0.0622809 0.0107033)
(0.0242799 -0.0512554 0.0113392)
(0.023627 -0.0399365 0.0122085)
(0.0227695 -0.0284889 0.0133273)
(0.0217915 -0.016726 0.0147445)
(0.0202524 -0.00290596 0.0167317)
(0.0190664 0.00622456 0.0181635)
(0.0175524 0.0188145 0.0203739)
(0.0156978 0.0336341 0.0232344)
(0.0136224 0.0512775 0.0268667)
(0.0106342 0.0742964 0.0312358)
(0.0072828 0.099671 0.0349443)
(0.0029359 0.121133 0.0346082)
(1.62313e-06 0.0950341 0.0169687)
(8.63653e-05 -0.0279701 0.00668988)
(0.00210517 -0.0877988 0.0101288)
(0.00451288 -0.131039 0.00984194)
(0.00667069 -0.153576 0.00909125)
(0.00853986 -0.163943 0.00858703)
(0.0101963 -0.168352 0.00832289)
(0.0118348 -0.169549 0.00821095)
(0.0132226 -0.168952 0.00816875)
(0.0146422 -0.166917 0.00811105)
(0.0158666 -0.163732 0.00804678)
(0.0169925 -0.159524 0.00797161)
(0.0179916 -0.15438 0.00788677)
(0.0188576 -0.148369 0.00779679)
(0.0195894 -0.141543 0.00770978)
(0.0201831 -0.133947 0.00763463)
(0.0206357 -0.125622 0.00758295)
(0.0209418 -0.116613 0.00756888)
(0.0211151 -0.106969 0.00760415)
(0.0210775 -0.0966897 0.00770215)
(0.0209734 -0.0857327 0.00792776)
(0.0205837 -0.0746452 0.00792517)
(0.0200675 -0.0635539 0.00793491)
(0.0195661 -0.0523057 0.00824953)
(0.01893 -0.0410481 0.00885212)
(0.0182371 -0.0299061 0.00978046)
(0.0175226 -0.0184641 0.0111112)
(0.0165142 -0.00498857 0.0129343)
(0.0155151 0.00485765 0.0143612)
(0.0143429 0.0152113 0.0160712)
(0.0128705 0.030395 0.0189521)
(0.0111907 0.0505138 0.0229433)
(0.0087373 0.076176 0.0274429)
(0.00594614 0.10442 0.0313633)
(0.00227976 0.126817 0.0304126)
(2.06164e-05 0.0949515 0.014349)
(0.00016508 -0.0358818 0.00468774)
(0.00173366 -0.101364 0.00701343)
(0.00349731 -0.142295 0.00715971)
(0.00500967 -0.160588 0.00704289)
(0.0062362 -0.168125 0.00686143)
(0.00729294 -0.171206 0.00663936)
(0.00829069 -0.172016 0.00637189)
(0.00917517 -0.171314 0.00611014)
(0.0100633 -0.169227 0.0058214)
(0.0108826 -0.165987 0.00553606)
(0.0116635 -0.161726 0.005258)
(0.0124011 -0.15652 0.00499138)
(0.0130909 -0.150439 0.00473423)
(0.0137239 -0.143536 0.00448308)
(0.0142887 -0.135857 0.00423798)
(0.0147745 -0.127446 0.0040045)
(0.015168 -0.118347 0.00379633)
(0.0154674 -0.108614 0.00363756)
(0.0156441 -0.0982639 0.00357277)
(0.0156728 -0.0872063 0.00377468)
(0.0157896 -0.075667 0.00444147)
(0.0156237 -0.0640474 0.004994)
(0.015414 -0.0524482 0.00553575)
(0.0150936 -0.0410317 0.00616702)
(0.0147096 -0.0299112 0.0070162)
(0.0141739 -0.0178693 0.00806746)
(0.01355 -0.00461465 0.00956063)
(0.0128263 0.00519656 0.0108645)
(0.0118068 0.0166037 0.0127075)
(0.0105954 0.0322103 0.0156694)
(0.00922298 0.0526652 0.019683)
(0.00719292 0.0803747 0.0247395)
(0.00474555 0.11123 0.0281828)
(0.00177763 0.133061 0.0264099)
(1.22862e-05 0.0952657 0.0123494)
(0.000101089 -0.0433393 0.00305314)
(0.00115875 -0.114951 0.00449006)
(0.00239136 -0.157243 0.00454931)
(0.00355787 -0.175774 0.00445651)
(0.00464323 -0.183264 0.00439224)
(0.00568972 -0.186088 0.00434863)
(0.00675243 -0.186392 0.00431552)
(0.00772734 -0.185105 0.00427888)
(0.00870598 -0.182352 0.00422872)
(0.00961026 -0.178394 0.00416912)
(0.0104678 -0.173353 0.00409769)
(0.0112667 -0.167325 0.00400918)
(0.0120037 -0.160354 0.0039044)
(0.0126697 -0.152475 0.00378685)
(0.0132546 -0.143718 0.00366192)
(0.013747 -0.134134 0.00353428)
(0.0141323 -0.123779 0.00340337)
(0.0144493 -0.112701 0.003248)
(0.0145431 -0.101077 0.00297042)
(0.0146323 -0.0893259 0.00285554)
(0.0145808 -0.0775036 0.00288437)
(0.0144944 -0.0656944 0.00310945)
(0.0142569 -0.053874 0.00336547)
(0.0139408 -0.0422323 0.00367262)
(0.013501 -0.030937 0.00403917)
(0.0129576 -0.0193017 0.00479826)
(0.012338 -0.00709695 0.00597011)
(0.0115777 0.00534436 0.00742762)
(0.0108198 0.0151503 0.00873009)
(0.00971645 0.0306338 0.0113087)
(0.00844453 0.0528372 0.0157092)
(0.00656925 0.0823192 0.0208013)
(0.00424341 0.114649 0.0244885)
(0.00159724 0.136343 0.0227936)
(3.84919e-05 0.0955687 0.00975522)
(0.000111692 -0.0469296 0.00212379)
(0.000986398 -0.12035 0.00339638)
(0.0020132 -0.16133 0.00371825)
(0.00293689 -0.178279 0.00377426)
(0.00376003 -0.185005 0.00373329)
(0.00454203 -0.18755 0.00364323)
(0.00532494 -0.187794 0.00351532)
(0.00606447 -0.186459 0.00336713)
(0.00681057 -0.183666 0.00318842)
(0.00752175 -0.179661 0.00299708)
(0.0082124 -0.174562 0.00279417)
(0.00886594 -0.168484 0.00257714)
(0.00947093 -0.161446 0.00234788)
(0.0100182 -0.153482 0.00210825)
(0.0104997 -0.144624 0.00186129)
(0.0109079 -0.134927 0.00161379)
(0.0112537 -0.124454 0.00137925)
(0.0114553 -0.11326 0.00119814)
(0.0117396 -0.101453 0.00122891)
(0.0118095 -0.0892839 0.00113404)
(0.0118691 -0.0769049 0.000961716)
(0.0118036 -0.0644059 0.00069836)
(0.0117092 -0.0520423 0.000589943)
(0.0115432 -0.0399567 0.000691269)
(0.0112978 -0.0280169 0.0010184)
(0.0109519 -0.0157202 0.00167873)
(0.0104309 -0.00323272 0.00275151)
(0.00999859 0.00617816 0.00385575)
(0.00940549 0.0181128 0.00573782)
(0.00848037 0.0337541 0.00881808)
(0.00731704 0.0563621 0.0131733)
(0.0055383 0.0884342 0.0176808)
(0.00345942 0.121751 0.02075)
(0.00116619 0.141629 0.0190474)
(-3.5745e-05 0.0960182 0.00792037)
(5.69723e-05 -0.0514136 0.00141328)
(0.000727885 -0.129077 0.00229766)
(0.00160642 -0.171446 0.00255092)
(0.00246944 -0.188647 0.00262725)
(0.00328669 -0.195282 0.0026448)
(0.00410295 -0.197632 0.00263385)
(0.00489798 -0.197615 0.00260401)
(0.00566909 -0.195965 0.00255672)
(0.00642182 -0.192799 0.00249654)
(0.0071356 -0.188372 0.00243022)
(0.00781571 -0.182764 0.00235537)
(0.00845111 -0.175984 0.00226938)
(0.00903084 -0.168115 0.00216505)
(0.00954758 -0.159216 0.00203688)
(0.00999362 -0.149355 0.00187922)
(0.0103615 -0.138617 0.00168577)
(0.0106688 -0.127111 0.00144541)
(0.0108603 -0.115006 0.00112627)
(0.0110267 -0.10256 0.000869757)
(0.0111068 -0.0898397 0.000639977)
(0.0111535 -0.077111 0.000464057)
(0.0110654 -0.0644222 0.000288996)
(0.0109388 -0.0520387 0.000186956)
(0.0107357 -0.0399954 0.000168228)
(0.0104587 -0.0280889 0.000287773)
(0.0101089 -0.0158978 0.000634819)
(0.00964328 -0.00345813 0.00126947)
(0.00915568 0.00637382 0.00202686)
(0.00848698 0.0187393 0.00352196)
(0.00756815 0.0352312 0.0061784)
(0.00633333 0.0592175 0.0102958)
(0.00465894 0.0924917 0.0150375)
(0.00283761 0.126298 0.017895)
(0.000974697 0.144682 0.0160957)
(6.58958e-06 0.0960738 0.00655544)
(7.45338e-05 -0.0532869 0.00104816)
(0.000711366 -0.132119 0.00198731)
(0.00150997 -0.173995 0.00238428)
(0.00226114 -0.190603 0.00248178)
(0.00296455 -0.196968 0.00246148)
(0.00366557 -0.199184 0.00238819)
(0.00434711 -0.199078 0.00228398)
(0.00501842 -0.197275 0.00215115)
(0.00566311 -0.193987 0.00199702)
(0.00628345 -0.189413 0.00182965)
(0.00687612 -0.183634 0.00164904)
(0.00743732 -0.176728 0.00145551)
(0.00796226 -0.168761 0.00125057)
(0.00844635 -0.159762 0.0010372)
(0.00888589 -0.14979 0.000822122)
(0.00928049 -0.138933 0.000619229)
(0.00959666 -0.12731 0.00045831)
(0.00990703 -0.115091 0.000395634)
(0.0100868 -0.102382 0.000238171)
(0.0102079 -0.0892656 2.62344e-05)
(0.0102495 -0.0758846 -0.000200101)
(0.010237 -0.062526 -0.000400852)
(0.0101428 -0.0494095 -0.000565211)
(0.00997238 -0.0367067 -0.000660513)
(0.00971636 -0.0241702 -0.000642008)
(0.00936464 -0.0115363 -0.000437599)
(0.00888809 0.000957559 7.46163e-06)
(0.00840535 0.0107149 0.000614228)
(0.00773308 0.0234934 0.00189427)
(0.00686014 0.0407812 0.00411952)
(0.00575536 0.065388 0.00784302)
(0.00430962 0.0984724 0.0124742)
(0.00273661 0.131121 0.0154432)
(0.0010704 0.147606 0.0140473)
(6.04438e-05 0.0965657 0.00578601)
(4.96832e-05 -0.0566978 0.000773156)
(0.000620971 -0.139152 0.00159117)
(0.00137144 -0.182186 0.00197126)
(0.0020989 -0.198972 0.00208334)
(0.00279538 -0.20527 0.00209053)
(0.00349812 -0.207352 0.00205434)
(0.00417628 -0.207063 0.00199743)
(0.00485011 -0.204966 0.00192367)
(0.00548626 -0.20136 0.00184057)
(0.00609465 -0.196417 0.00174818)
(0.00666779 -0.190219 0.00164268)
(0.0072025 -0.1828 0.00151928)
(0.00769663 -0.174207 0.00137378)
(0.00814974 -0.164533 0.00120332)
(0.00856172 -0.153853 0.00100415)
(0.00892849 -0.142245 0.000773013)
(0.00924915 -0.129818 0.000508789)
(0.00950711 -0.116722 0.000218717)
(0.0097296 -0.103168 -6.00875e-05)
(0.00984624 -0.0894201 -0.000337537)
(0.00996524 -0.0757169 -0.000603155)
(0.0099841 -0.0621245 -0.000839504)
(0.00995237 -0.0488177 -0.00103991)
(0.00985655 -0.0359103 -0.0011888)
(0.00966447 -0.0230733 -0.00125808)
(0.00935675 -0.0100945 -0.00119284)
(0.00898922 0.00266768 -0.000959515)
(0.00864728 0.0127413 -0.00061786)
(0.00809531 0.0260704 0.000221942)
(0.00730362 0.0436505 0.00194315)
(0.00620542 0.0686282 0.00504955)
(0.0046621 0.102342 0.00934609)
(0.00294493 0.135447 0.0125539)
(0.0011779 0.151611 0.0119231)
(7.52157e-05 0.0987143 0.00478336)
(7.85414e-05 -0.0582877 0.000665698)
(0.000648979 -0.141822 0.00162475)
(0.00133056 -0.184556 0.00210533)
(0.00195818 -0.201001 0.00222297)
(0.00254898 -0.207148 0.00220509)
(0.00314015 -0.209122 0.00213452)
(0.00371013 -0.208713 0.00204077)
(0.00427402 -0.206465 0.00192734)
(0.00480892 -0.202673 0.00180262)
(0.00532004 -0.197515 0.00166802)
(0.00580299 -0.19109 0.00152068)
(0.00625923 -0.183478 0.00135751)
(0.00668996 -0.17478 0.00117821)
(0.00709375 -0.165044 0.000977803)
(0.00747011 -0.154301 0.00074929)
(0.00782048 -0.14263 0.000492545)
(0.00814537 -0.130134 0.000210427)
(0.00844464 -0.116966 -8.89154e-05)
(0.00869123 -0.103318 -0.000389476)
(0.00891595 -0.0893273 -0.000673487)
(0.00904753 -0.0750658 -0.00103001)
(0.00911383 -0.0608517 -0.00134979)
(0.00911051 -0.0469358 -0.00162454)
(0.00903964 -0.0333157 -0.00183763)
(0.00886564 -0.0195459 -0.00196278)
(0.00857235 -0.00612374 -0.00196645)
(0.00830393 0.00604647 -0.00184502)
(0.00802446 0.0162926 -0.0016014)
(0.0074513 0.030828 -0.000903254)
(0.00663704 0.0503275 0.000559278)
(0.00548978 0.0774822 0.00310835)
(0.00386142 0.112498 0.00653576)
(0.00217435 0.144555 0.00907412)
(0.000654484 0.157738 0.00864731)
(-8.09963e-05 0.0999264 0.0031709)
(5.4522e-05 -0.0613849 0.000640181)
(0.000553433 -0.148024 0.0016293)
(0.00116295 -0.191462 0.00211632)
(0.00173262 -0.20787 0.00225346)
(0.00227633 -0.213894 0.0022682)
(0.00282479 -0.215727 0.00224052)
(0.00335602 -0.215136 0.00219834)
(0.00387961 -0.212655 0.00214897)
(0.00437534 -0.208591 0.00209673)
(0.00484666 -0.20313 0.00204068)
(0.00528896 -0.196382 0.00197452)
(0.00570098 -0.188424 0.00188882)
(0.00608295 -0.17928 0.00176982)
(0.00643453 -0.169012 0.00160637)
(0.00675669 -0.157746 0.00139251)
(0.00705417 -0.145566 0.00111928)
(0.00732865 -0.132544 0.000781453)
(0.00757582 -0.118777 0.00038138)
(0.00779957 -0.104425 -6.43665e-05)
(0.00796775 -0.0896971 -0.000509097)
(0.00808121 -0.0748413 -0.000957877)
(0.00816977 -0.0601455 -0.00138903)
(0.00818952 -0.0458816 -0.00176449)
(0.00810545 -0.0318543 -0.00205861)
(0.00793704 -0.0175783 -0.00225452)
(0.00766567 -0.00367489 -0.00233049)
(0.0074167 0.00730305 -0.00229084)
(0.00700761 0.0202492 -0.00201052)
(0.00632814 0.0356596 -0.00123644)
(0.00546189 0.0560779 0.00032972)
(0.00441597 0.0845504 0.00286135)
(0.00312138 0.120118 0.00580501)
(0.00184114 0.15068 0.00757125)
(0.000672659 0.161159 0.00685998)
(6.44357e-06 0.100263 0.00237164)
(7.68087e-05 -0.0628398 0.000674049)
(0.000544678 -0.150399 0.00181623)
(0.00105332 -0.19356 0.00235572)
(0.00150769 -0.209716 0.00248867)
(0.00193609 -0.215635 0.00249112)
(0.002367 -0.217384 0.00245324)
(0.00278668 -0.216684 0.00240543)
(0.00320028 -0.214062 0.00235613)
(0.00359516 -0.209826 0.00231026)
(0.00397316 -0.204166 0.00226789)
(0.00433113 -0.197199 0.00222308)
(0.00466787 -0.189022 0.0021661)
(0.0049849 -0.179729 0.0020853)
(0.00528801 -0.169401 0.00196726)
(0.00558256 -0.158088 0.00179551)
(0.00587111 -0.145863 0.00155472)
(0.00615637 -0.132793 0.001233)
(0.00644031 -0.11897 0.000825178)
(0.00669957 -0.104549 0.000335504)
(0.00698772 -0.0897324 -0.000228172)
(0.0071999 -0.0746462 -0.000791908)
(0.00738362 -0.0594554 -0.00134543)
(0.0074666 -0.0442855 -0.00187054)
(0.00747462 -0.029433 -0.00232616)
(0.00739288 -0.0144722 -0.00268018)
(0.00725006 -5.23787e-05 -0.00291596)
(0.00706244 0.0115339 -0.00301877)
(0.00673531 0.0254183 -0.00293494)
(0.00623785 0.0417064 -0.00240453)
(0.00551634 0.0625081 -0.00102677)
(0.00458365 0.0907265 0.00157432)
(0.0033991 0.125778 0.00487504)
(0.0021479 0.15569 0.00695535)
(0.000867337 0.165183 0.00646249)
(2.37948e-05 0.102322 0.00233596)
(5.40264e-05 -0.0656233 0.000792871)
(0.000421788 -0.15566 0.00201759)
(0.000828425 -0.199151 0.00255207)
(0.00119624 -0.215151 0.00270097)
(0.00154993 -0.220936 0.00273737)
(0.00191085 -0.222567 0.00274564)
(0.00226779 -0.221728 0.00275344)
(0.00262197 -0.218945 0.00277224)
(0.00296412 -0.214536 0.00280535)
(0.00329512 -0.20869 0.00285196)
(0.00361306 -0.201526 0.0029048)
(0.00391765 -0.193136 0.00295167)
(0.00420855 -0.183603 0.00297621)
(0.00448567 -0.173009 0.00295822)
(0.00475121 -0.161443 0.0028757)
(0.00501003 -0.14898 0.00270626)
(0.00526876 -0.135671 0.00242879)
(0.00553478 -0.12156 0.00202727)
(0.00581179 -0.106768 0.00149943)
(0.00608865 -0.0914384 0.000859856)
(0.00635607 -0.0757581 0.000141764)
(0.00660328 -0.0599558 -0.000599843)
(0.00676632 -0.0442607 -0.00128795)
(0.00690151 -0.0288754 -0.00196119)
(0.00693338 -0.013641 -0.00249485)
(0.00692321 0.00100945 -0.00288445)
(0.00685595 0.0130464 -0.00312682)
(0.00668134 0.0277301 -0.00329203)
(0.00633199 0.045261 -0.00320914)
(0.00568049 0.0676578 -0.00254806)
(0.00462469 0.0974002 -0.000738245)
(0.00313207 0.133533 0.00223567)
(0.00170224 0.163395 0.0046046)
(0.000455483 0.171246 0.0047318)
(-0.000138287 0.103786 0.0012292)
(5.40998e-05 -0.0667689 0.000905108)
(0.000353058 -0.157408 0.00220833)
(0.000654404 -0.200689 0.00272596)
(0.000918074 -0.216534 0.00285473)
(0.00117191 -0.222271 0.0028847)
(0.00143288 -0.223867 0.00289699)
(0.00169541 -0.222971 0.00291744)
(0.00195912 -0.220116 0.00295804)
(0.00221886 -0.215618 0.00302366)
(0.00247514 -0.209675 0.0031155)
(0.0027273 -0.202411 0.00322852)
(0.00297595 -0.193926 0.00335251)
(0.0032219 -0.184312 0.00347266)
(0.0034659 -0.173656 0.0035685)
(0.00370771 -0.162046 0.00361358)
(0.0039464 -0.149567 0.003577)
(0.00418295 -0.136303 0.0034274)
(0.00442329 -0.122321 0.0031376)
(0.00467595 -0.107672 0.00268864)
(0.0049463 -0.0924212 0.00207404)
(0.00522587 -0.0766942 0.00131528)
(0.00547949 -0.0606087 0.000469889)
(0.0057134 -0.0443145 -0.000405983)
(0.00577207 -0.0279923 -0.00116727)
(0.00576937 -0.0121541 -0.0018653)
(0.00563248 0.00298674 -0.00233808)
(0.00543384 0.0158141 -0.00256437)
(0.00511847 0.0314111 -0.00260481)
(0.0046566 0.0506696 -0.00242126)
(0.00395564 0.0758934 -0.00199447)
(0.00293093 0.108493 -0.00112974)
(0.00161839 0.144909 0.000384305)
(0.000591005 0.171557 0.0017541)
(-4.62047e-05 0.175318 0.00201927)
(-9.65067e-05 0.103323 0.000522904)
(2.55581e-05 -0.0689351 0.00106427)
(0.000264329 -0.161595 0.00242441)
(0.00050663 -0.205127 0.00289978)
(0.000726405 -0.220839 0.00301101)
(0.000944988 -0.226468 0.00304455)
(0.00117463 -0.22798 0.00307389)
(0.00140989 -0.226999 0.00312257)
(0.00164976 -0.224061 0.00320298)
(0.00189034 -0.219487 0.00331992)
(0.00213196 -0.213476 0.0034749)
(0.00237421 -0.206154 0.00366331)
(0.00261735 -0.197615 0.00387514)
(0.00286133 -0.18794 0.00409524)
(0.00310558 -0.177198 0.0043027)
(0.00334876 -0.165456 0.00447056)
(0.00358859 -0.152786 0.00456644)
(0.00382177 -0.139271 0.00455451)
(0.00404543 -0.125011 0.00440015)
(0.00426019 -0.110102 0.00407667)
(0.00447162 -0.0945856 0.00356509)
(0.0046843 -0.0784319 0.00285321)
(0.00489053 -0.0616466 0.00194208)
(0.00506352 -0.0444227 0.000884272)
(0.00515477 -0.0270874 -0.000177849)
(0.00509128 -0.0100461 -0.00107135)
(0.0048967 0.00588383 -0.00176526)
(0.00465093 0.019406 -0.0020812)
(0.00425662 0.0356613 -0.00198679)
(0.00371151 0.055614 -0.00135256)
(0.00307587 0.0815738 -0.000257456)
(0.00243907 0.114683 0.000932588)
(0.00176061 0.150266 0.00181844)
(0.00112785 0.174508 0.00212645)
(0.000548917 0.175822 0.00176367)
(7.95455e-05 0.103417 0.00061439)
(4.65534e-05 -0.0699752 0.00117791)
(0.000261911 -0.163229 0.00255772)
(0.000422639 -0.206647 0.00296448)
(0.000567123 -0.222301 0.00303968)
(0.000717815 -0.227924 0.00305755)
(0.000885161 -0.229432 0.00308207)
(0.00106579 -0.228433 0.00313556)
(0.00125801 -0.225474 0.00322985)
(0.0014592 -0.220876 0.00336991)
(0.00166893 -0.214846 0.0035578)
(0.00188695 -0.207507 0.00378998)
(0.00211357 -0.198957 0.00405759)
(0.00234896 -0.189278 0.00434658)
(0.00259334 -0.178542 0.00463706)
(0.00284697 -0.166815 0.00490253)
(0.00310991 -0.154159 0.00510976)
(0.00338155 -0.140639 0.00521961)
(0.00366015 -0.126335 0.00519003)
(0.0039427 -0.111354 0.00498247)
(0.00422846 -0.0957867 0.00456625)
(0.00452418 -0.0796545 0.0039242)
(0.00484103 -0.0628827 0.00305592)
(0.00518034 -0.0453001 0.00197686)
(0.00552464 -0.0269622 0.000733939)
(0.00580735 -0.00886172 -0.000536404)
(0.00597041 0.00791828 -0.00164793)
(0.00597012 0.0219531 -0.00239339)
(0.0057808 0.0394555 -0.00283763)
(0.0053726 0.0599099 -0.00259093)
(0.00478214 0.0850784 -0.0013414)
(0.00411698 0.117038 0.000796826)
(0.00326163 0.152921 0.00288467)
(0.00224317 0.178803 0.00379845)
(0.00106666 0.181018 0.00333858)
(7.41766e-05 0.107184 0.001285)
(3.46093e-05 -0.0720367 0.00138711)
(0.000144726 -0.16676 0.00274905)
(0.000182529 -0.210219 0.0030561)
(0.000224482 -0.225826 0.00311385)
(0.000286511 -0.231453 0.00314885)
(0.000373229 -0.23298 0.00320623)
(0.000484716 -0.231996 0.00330581)
(0.000617943 -0.229058 0.00345777)
(0.000770412 -0.224489 0.00366599)
(0.000940918 -0.218499 0.00393141)
(0.00112931 -0.211214 0.00424994)
(0.00133593 -0.202728 0.00461233)
(0.00156099 -0.193117 0.00500402)
(0.00180453 -0.182445 0.00540428)
(0.00206644 -0.17077 0.00578534)
(0.00234655 -0.158145 0.00611215)
(0.00264481 -0.144628 0.00634308)
(0.00296126 -0.130289 0.00643226)
(0.00329518 -0.115221 0.00633458)
(0.00364526 -0.0995108 0.00600803)
(0.0040118 -0.0832105 0.00541966)
(0.00439832 -0.0663182 0.00455364)
(0.00481592 -0.0487989 0.003421)
(0.00528807 -0.0306164 0.00206482)
(0.00580327 -0.0118928 0.000563157)
(0.0062237 0.00676683 -0.000959379)
(0.0063901 0.0224334 -0.00215148)
(0.0063151 0.0417847 -0.00337112)
(0.00590706 0.0642179 -0.00417692)
(0.00509421 0.0912776 -0.00399699)
(0.00389954 0.124805 -0.00229475)
(0.00242075 0.161994 0.000395535)
(0.00118412 0.187805 0.00224273)
(0.000223581 0.188447 0.00245165)
(-0.00019494 0.108956 0.000424278)
(3.0003e-05 -0.0728735 0.00156033)
(-5.78876e-05 -0.167545 0.00271361)
(-0.000242847 -0.210817 0.00286011)
(-0.000381803 -0.226507 0.00291148)
(-0.000464349 -0.232248 0.00298524)
(-0.00050614 -0.233905 0.00308926)
(-0.000510747 -0.233045 0.00324855)
(-0.000481408 -0.230228 0.00347186)
(-0.000421843 -0.225774 0.00376439)
(-0.000333438 -0.219904 0.00412832)
(-0.000216736 -0.212745 0.00456159)
(-7.19544e-05 -0.204392 0.00505707)
(0.000100264 -0.19492 0.00560195)
(0.000298873 -0.184393 0.00617621)
(0.000522386 -0.172865 0.00675115)
(0.000768903 -0.160385 0.0072886)
(0.00103639 -0.147005 0.007741)
(0.00132325 -0.132786 0.00805363)
(0.00162751 -0.117812 0.00817088)
(0.00194687 -0.102156 0.00803897)
(0.00227992 -0.08586 0.00761178)
(0.00262621 -0.0689078 0.00685948)
(0.00298765 -0.051269 0.00577969)
(0.00336425 -0.0329447 0.0044145)
(0.00373373 -0.0138109 0.00285544)
(0.00400467 0.005836 0.00128006)
(0.0040735 0.0239109 -8.52512e-05)
(0.00389803 0.0458523 -0.00152154)
(0.00342788 0.0715899 -0.00288056)
(0.00262386 0.102223 -0.00387972)
(0.00152158 0.137651 -0.00385873)
(0.000414397 0.172884 -0.00255127)
(-0.000171191 0.194015 -0.00111094)
(-0.000361416 0.190301 -0.000281268)
(-0.000162261 0.107351 -0.000288931)
(-2.52361e-05 -0.07352 0.00171213)
(-0.00020052 -0.168161 0.00265988)
(-0.000459746 -0.211763 0.00258208)
(-0.000653079 -0.227934 0.00257209)
(-0.000802245 -0.234104 0.0026297)
(-0.0009049 -0.236004 0.00276242)
(-0.000968363 -0.235357 0.00296806)
(-0.000988327 -0.232748 0.00324941)
(-0.000968035 -0.22851 0.00361176)
(-0.00090879 -0.222868 0.00405899)
(-0.000811852 -0.215949 0.00459269)
(-0.000678187 -0.207842 0.00521107)
(-0.000510062 -0.198613 0.00590712)
(-0.000310782 -0.188314 0.00666657)
(-8.44748e-05 -0.176985 0.00746555)
(0.000164264 -0.164663 0.00826839)
(0.000431341 -0.151386 0.00902574)
(0.000713014 -0.137207 0.00967576)
(0.00100543 -0.122199 0.0101481)
(0.00130487 -0.106426 0.010366)
(0.00160847 -0.0899261 0.0102559)
(0.00191791 -0.0727016 0.00976215)
(0.00224346 -0.0547133 0.00885812)
(0.00259035 -0.0358417 0.00755594)
(0.00289428 -0.0155568 0.00588739)
(0.00301833 0.00560019 0.00409221)
(0.00296612 0.0253295 0.00271648)
(0.00274183 0.0488007 0.001512)
(0.0023741 0.0760066 0.000553136)
(0.00192827 0.107824 -0.000336473)
(0.00146638 0.143309 -0.00113782)
(0.00101798 0.1765 -0.00142395)
(0.000662413 0.195096 -0.00119632)
(0.00034925 0.190532 -0.000535802)
(6.47644e-05 0.106831 8.78453e-05)
(-4.34346e-05 -0.0735281 0.00174664)
(-0.000294427 -0.168189 0.00222563)
(-0.000604038 -0.211816 0.00159259)
(-0.000815785 -0.228049 0.00165389)
(-0.00098231 -0.234332 0.00174397)
(-0.00109892 -0.236444 0.00189014)
(-0.00116743 -0.236055 0.00210825)
(-0.00118596 -0.233725 0.00240475)
(-0.00115696 -0.229779 0.00278599)
(-0.00108221 -0.224434 0.00325787)
(-0.000963324 -0.21782 0.00382713)
(-0.000801712 -0.210018 0.00450002)
(-0.000600476 -0.201089 0.0052791)
(-0.000363921 -0.191077 0.0061611)
(-9.70802e-05 -0.18002 0.00713398)
(0.000195418 -0.167953 0.00817321)
(0.000508936 -0.154912 0.00923856)
(0.000839511 -0.140945 0.0102704)
(0.00118474 -0.126114 0.0111892)
(0.00154397 -0.110467 0.0118977)
(0.00191979 -0.0940409 0.0122878)
(0.00232163 -0.076885 0.012259)
(0.00276901 -0.0589879 0.0117275)
(0.00328421 -0.0400365 0.0106183)
(0.00382566 -0.018702 0.00876337)
(0.004248 0.00450797 0.00632468)
(0.00447476 0.0250933 0.00431344)
(0.00450372 0.0499472 0.00243678)
(0.00427671 0.0775483 0.00150594)
(0.0038894 0.109078 0.00136066)
(0.00342179 0.144711 0.00146435)
(0.00272226 0.179291 0.00142732)
(0.0018523 0.199531 0.0012789)
(0.000900578 0.194677 0.000986704)
(8.95361e-05 0.109559 0.000730993)
(-6.29383e-05 -0.0733704 0.00154801)
(-0.000414019 -0.167821 0.00133044)
(-0.000691744 -0.211818 0.000801785)
(-0.000906515 -0.22892 0.000652567)
(-0.00101541 -0.235749 0.000674601)
(-0.00107776 -0.238251 0.000793765)
(-0.00108745 -0.23821 0.000998166)
(-0.00104722 -0.236216 0.00128333)
(-0.000958318 -0.232606 0.00164889)
(-0.000823216 -0.227602 0.00209898)
(-0.000644038 -0.221338 0.00264297)
(-0.000423165 -0.213889 0.00329369)
(-0.00016459 -0.205307 0.00406373)
(0.000125754 -0.195629 0.00496372)
(0.000440446 -0.184887 0.00600002)
(0.000772297 -0.17311 0.00717137)
(0.00111389 -0.160334 0.00846212)
(0.00145825 -0.146604 0.0098318)
(0.0018003 -0.131986 0.0112097)
(0.00213968 -0.116541 0.0124932)
(0.00248283 -0.100318 0.0135532)
(0.00284647 -0.0833916 0.0142502)
(0.00325619 -0.0657966 0.014446)
(0.00374873 -0.0471807 0.0139984)
(0.00433462 -0.025486 0.0125269)
(0.004943 -0.000625419 0.00989725)
(0.00528509 0.0219213 0.00708016)
(0.00540108 0.0496552 0.00366809)
(0.00509482 0.0800586 0.000809058)
(0.00435597 0.113655 -0.000193887)
(0.00334426 0.150945 0.000329855)
(0.00214883 0.18702 0.00128165)
(0.00114763 0.207372 0.00173184)
(0.000381911 0.201419 0.00159303)
(-8.07861e-05 0.112061 0.000912438)
(-9.4327e-05 -0.0725363 0.00111678)
(-0.000372475 -0.166511 0.000207885)
(-0.000603218 -0.211482 -0.000286019)
(-0.000693114 -0.229081 -0.00088485)
(-0.000706244 -0.236282 -0.000933876)
(-0.000660064 -0.239133 -0.000820005)
(-0.000567058 -0.239412 -0.000633862)
(-0.000428852 -0.237752 -0.000386781)
(-0.000246903 -0.234474 -7.78381e-05)
(-2.579e-05 -0.22979 0.000298304)
(0.000230421 -0.223834 0.000752782)
(0.00051693 -0.216675 0.00130294)
(0.000826306 -0.208353 0.00196901)
(0.00114927 -0.198905 0.00277275)
(0.00147522 -0.188363 0.00373796)
(0.00179505 -0.176764 0.00489271)
(0.00209453 -0.164134 0.00626376)
(0.00235809 -0.150523 0.00784608)
(0.00257762 -0.136011 0.0095922)
(0.00274979 -0.120687 0.0114206)
(0.00288035 -0.104632 0.0132058)
(0.00299191 -0.0879643 0.0147806)
(0.00310833 -0.0707546 0.0159885)
(0.00326643 -0.0526194 0.016683)
(0.00347745 -0.0310215 0.016394)
(0.00370454 -0.00534772 0.0146552)
(0.00386061 0.0200948 0.0117617)
(0.0038308 0.0513164 0.00763888)
(0.00342707 0.0857055 0.00333373)
(0.00267498 0.122587 0.000177018)
(0.00160982 0.160988 -0.000875241)
(0.000660539 0.195082 -0.000340605)
(0.000155001 0.212166 0.000438075)
(-7.63978e-05 0.203124 0.000988953)
(-1.0194e-05 0.111111 0.0010201)
(-7.49012e-05 -0.0718375 0.000683114)
(-0.000223469 -0.166052 -0.000371812)
(-0.000150333 -0.211783 -0.00174611)
(7.00122e-06 -0.230508 -0.00222604)
(0.000259321 -0.238368 -0.00240336)
(0.000556305 -0.241653 -0.00243752)
(0.000882666 -0.242282 -0.0023832)
(0.00123349 -0.240948 -0.00226771)
(0.00161555 -0.237953 -0.00209935)
(0.00201739 -0.233519 -0.00187965)
(0.00243753 -0.227783 -0.00160401)
(0.00286886 -0.220802 -0.00125779)
(0.0033024 -0.212607 -0.000821109)
(0.00372667 -0.203221 -0.000269145)
(0.00412134 -0.192681 0.000432852)
(0.00448311 -0.18103 0.00134794)
(0.00476765 -0.16826 0.0025892)
(0.00493562 -0.154448 0.00415556)
(0.00508119 -0.139733 0.00586436)
(0.00505465 -0.124221 0.00798923)
(0.00494806 -0.108088 0.0103587)
(0.00475868 -0.0914744 0.0127575)