/*--------------------------------*- C++ -*----------------------------------*\
  =========                 |
  \\      /  F ield         | OpenFOAM: The Open Source CFD Toolbox
   \\    /   O peration     | Website:  https://openfoam.org
    \\  /    A nd           | Version:  11
     \\/     M anipulation  |
\*---------------------------------------------------------------------------*/
FoamFile
{
    format      ascii;
    class       surfaceScalarField;
    location    "0.14";
    object      phi;
}
// * * * * * * * * * * * * * * * * * * * * * * * * * * * * * * * * * * * * * //

dimensions      [0 3 -1 0 0 0 0];

internalField   nonuniform List<scalar> 
24170
(
3.1336e-06
5.48089e-08
3.04826e-06
8.53331e-08
2.97313e-06
7.51343e-08
2.90428e-06
6.88504e-08
2.83943e-06
6.48484e-08
2.78219e-06
5.72452e-08
2.73326e-06
4.89286e-08
2.6917e-06
4.15592e-08
2.65622e-06
3.54816e-08
2.62564e-06
3.05736e-08
2.59901e-06
2.66367e-08
2.5755e-06
2.35086e-08
2.55442e-06
2.1073e-08
2.5351e-06
1.93229e-08
2.51687e-06
1.82349e-08
2.49787e-06
1.9e-08
2.4768e-06
2.10699e-08
3.92462e-08
2.43755e-06
3.45361e-06
1.84471e-08
3.45616e-06
8.2782e-08
3.44961e-06
8.16836e-08
3.43798e-06
8.04787e-08
3.42349e-06
7.93468e-08
3.40593e-06
7.47994e-08
3.38628e-06
6.85753e-08
3.36536e-06
6.24847e-08
3.34393e-06
5.69154e-08
3.32259e-06
5.19106e-08
3.30175e-06
4.74795e-08
3.28162e-06
4.36338e-08
3.26232e-06
4.03696e-08
3.24384e-06
3.7806e-08
3.22622e-06
3.58595e-08
3.20928e-06
3.59332e-08
3.19395e-06
3.6398e-08
4.7302e-08
3.1859e-06
3.66535e-06
1.56115e-08
3.67825e-06
6.98863e-08
3.6853e-06
7.46283e-08
3.68958e-06
7.62051e-08
3.69124e-06
7.7684e-08
3.69009e-06
7.59454e-08
3.68662e-06
7.20446e-08
3.68141e-06
6.7702e-08
3.67487e-06
6.34552e-08
3.66735e-06
5.94244e-08
3.65915e-06
5.56875e-08
3.65045e-06
5.23256e-08
3.64143e-06
4.93976e-08
3.63217e-06
4.70627e-08
3.62268e-06
4.53519e-08
3.61339e-06
4.52187e-08
3.60395e-06
4.58374e-08
5.09347e-08
3.60032e-06
3.92465e-06
1.63524e-08
3.9358e-06
5.87386e-08
3.94253e-06
6.7891e-08
3.948e-06
7.07383e-08
3.9524e-06
7.32841e-08
3.9553e-06
7.30404e-08
3.95684e-06
7.05104e-08
3.9573e-06
6.72423e-08
3.95687e-06
6.38823e-08
3.9557e-06
6.0591e-08
3.95393e-06
5.7464e-08
3.95165e-06
5.46053e-08
3.94894e-06
5.21019e-08
3.9459e-06
5.01065e-08
3.94255e-06
4.8705e-08
3.93933e-06
4.84312e-08
3.93627e-06
4.89046e-08
5.11441e-08
3.93606e-06
4.20777e-06
1.57137e-08
4.21599e-06
5.05111e-08
4.22165e-06
6.2234e-08
4.22657e-06
6.5816e-08
4.23126e-06
6.85977e-08
4.2352e-06
6.90993e-08
4.23828e-06
6.74341e-08
4.24062e-06
6.48958e-08
4.24235e-06
6.2156e-08
4.24354e-06
5.94002e-08
4.24427e-06
5.67316e-08
4.24461e-06
5.42626e-08
4.24463e-06
5.20916e-08
4.24438e-06
5.03484e-08
4.24397e-06
4.9119e-08
4.24373e-06
4.86659e-08
4.24388e-06
4.87631e-08
4.94655e-08
4.24555e-06
4.51044e-06
1.43627e-08
4.51686e-06
4.40931e-08
4.52216e-06
5.69301e-08
4.52681e-06
6.11667e-08
4.53141e-06
6.39977e-08
4.53558e-06
6.49247e-08
4.53915e-06
6.387e-08
4.54217e-06
6.18756e-08
4.54472e-06
5.95994e-08
4.54687e-06
5.72503e-08
4.54867e-06
5.49374e-08
4.55016e-06
5.27732e-08
4.55139e-06
5.08554e-08
4.55246e-06
4.92859e-08
4.55345e-06
4.81266e-08
4.55464e-06
4.74794e-08
4.55624e-06
4.71603e-08
4.69289e-08
4.55878e-06
4.83412e-06
1.29635e-08
4.83957e-06
3.86388e-08
4.84482e-06
5.1686e-08
4.8494e-06
5.65872e-08
4.85389e-06
5.95017e-08
4.8581e-06
6.07129e-08
4.86185e-06
6.01254e-08
4.86516e-06
5.85655e-08
4.8681e-06
5.66582e-08
4.87072e-06
5.46344e-08
4.87305e-06
5.26083e-08
4.87513e-06
5.06876e-08
4.87702e-06
4.89624e-08
4.8788e-06
4.75076e-08
4.88057e-06
4.63567e-08
4.88253e-06
4.55217e-08
4.88485e-06
4.48365e-08
4.40258e-08
4.88776e-06
5.1809e-06
1.16454e-08
5.1857e-06
3.38389e-08
5.19083e-06
4.65597e-08
5.19539e-06
5.20193e-08
5.19984e-06
5.50523e-08
5.20408e-06
5.64704e-08
5.20795e-06
5.62629e-08
5.21144e-06
5.50755e-08
5.21461e-06
5.34833e-08
5.21751e-06
5.17349e-08
5.22017e-06
4.99496e-08
5.22263e-06
4.82285e-08
5.22494e-06
4.6651e-08
5.22718e-06
4.52702e-08
5.22944e-06
4.4096e-08
5.23186e-06
4.30966e-08
5.23457e-06
4.21267e-08
4.09622e-08
5.23764e-06
5.5526e-06
1.0384e-08
5.55684e-06
2.95942e-08
5.56175e-06
4.16504e-08
5.56631e-06
4.74635e-08
5.57075e-06
5.06101e-08
5.57504e-06
5.21804e-08
5.57902e-06
5.22876e-08
5.58266e-06
5.14309e-08
5.58602e-06
5.01213e-08
5.58914e-06
4.86167e-08
5.59205e-06
4.70416e-08
5.59479e-06
4.54896e-08
5.59741e-06
4.40297e-08
5.59998e-06
4.2699e-08
5.60258e-06
4.14929e-08
5.60532e-06
4.0364e-08
5.60825e-06
3.9194e-08
3.78257e-08
5.61139e-06
5.95098e-06
9.17591e-09
5.95475e-06
2.58273e-08
5.9594e-06
3.70031e-08
5.96392e-06
4.29404e-08
5.96836e-06
4.61674e-08
5.9727e-06
4.78439e-08
5.97678e-06
4.82038e-08
5.98058e-06
4.76378e-08
5.98411e-06
4.65846e-08
5.98743e-06
4.53004e-08
5.99056e-06
4.39136e-08
5.99354e-06
4.25104e-08
5.99642e-06
4.11504e-08
5.99926e-06
3.98605e-08
6.00212e-06
3.86304e-08
6.00507e-06
3.74136e-08
6.00814e-06
3.61204e-08
3.46531e-08
6.01131e-06
6.37795e-06
8.03468e-09
6.38132e-06
2.24608e-08
6.3857e-06
3.26265e-08
6.39016e-06
3.84749e-08
6.3946e-06
4.17296e-08
6.39897e-06
4.34706e-08
6.40316e-06
4.40211e-08
6.40709e-06
4.37012e-08
6.4108e-06
4.28774e-08
6.41431e-06
4.1793e-08
6.41764e-06
4.05768e-08
6.42085e-06
3.93085e-08
6.42396e-06
3.80401e-08
6.42702e-06
3.67931e-08
6.4301e-06
3.55575e-08
6.43321e-06
3.42963e-08
6.43639e-06
3.29466e-08
3.14559e-08
6.43958e-06
5.74175e-06
7.12161e-09
5.74433e-06
1.98805e-08
5.74782e-06
2.9134e-08
5.75154e-06
3.4759e-08
5.75528e-06
3.79863e-08
5.759e-06
3.97529e-08
5.7626e-06
4.04185e-08
5.76603e-06
4.02686e-08
5.76929e-06
3.96162e-08
5.7724e-06
3.86853e-08
5.77538e-06
3.76013e-08
5.77825e-06
3.64397e-08
5.78104e-06
3.52472e-08
5.78379e-06
3.40436e-08
5.78652e-06
3.28221e-08
5.78926e-06
3.15557e-08
5.79201e-06
3.02008e-08
2.87345e-08
5.79473e-06
6.99913e-06
6.14589e-09
7.00186e-06
1.71517e-08
7.00564e-06
2.53549e-08
7.00979e-06
3.06038e-08
7.01406e-06
3.37207e-08
7.01834e-06
3.54709e-08
7.02254e-06
3.62211e-08
7.02658e-06
3.62249e-08
7.03046e-06
3.57405e-08
7.03418e-06
3.49666e-08
7.03776e-06
3.40218e-08
7.04122e-06
3.29763e-08
7.04459e-06
3.18725e-08
7.04791e-06
3.07299e-08
7.05118e-06
2.95471e-08
7.05443e-06
2.83089e-08
7.05764e-06
2.69897e-08
2.55891e-08
7.06079e-06
8.53188e-06
5.11665e-09
8.53473e-06
1.43004e-08
8.53877e-06
2.13158e-08
8.54336e-06
2.60149e-08
8.54817e-06
2.89093e-08
8.55306e-06
3.058e-08
8.55791e-06
3.1367e-08
8.56264e-06
3.14922e-08
8.56722e-06
3.11617e-08
8.57165e-06
3.05422e-08
8.57593e-06
2.97411e-08
8.58008e-06
2.88225e-08
8.58413e-06
2.78251e-08
8.58809e-06
2.67691e-08
8.59198e-06
2.56594e-08
8.5958e-06
2.4492e-08
8.59953e-06
2.32561e-08
2.19664e-08
8.60315e-06
1.04003e-05
4.04432e-09
1.04032e-05
1.13439e-08
1.04075e-05
1.70345e-08
1.04125e-05
2.09975e-08
1.04179e-05
2.3529e-08
1.04235e-05
2.50327e-08
1.04291e-05
2.57906e-08
1.04346e-05
2.59889e-08
1.04399e-05
2.57852e-08
1.04452e-05
2.53107e-08
1.04502e-05
2.46558e-08
1.04552e-05
2.38772e-08
1.046e-05
2.30098e-08
1.04647e-05
2.20741e-08
1.04693e-05
2.10804e-08
1.04737e-05
2.00334e-08
1.04781e-05
1.89325e-08
1.7801e-08
1.04822e-05
1.26779e-05
2.93425e-09
1.2681e-05
8.27301e-09
1.26855e-05
1.25015e-08
1.2691e-05
1.55385e-08
1.26969e-05
1.75431e-08
1.27032e-05
1.87667e-08
1.27096e-05
1.94125e-08
1.2716e-05
1.96217e-08
1.27222e-05
1.95067e-08
1.27284e-05
1.91615e-08
1.27344e-05
1.86551e-08
1.27402e-05
1.80329e-08
1.27459e-05
1.73246e-08
1.27514e-05
1.65498e-08
1.27568e-05
1.57211e-08
1.2762e-05
1.4848e-08
1.2767e-05
1.39356e-08
1.30097e-08
1.27718e-05
1.54543e-05
1.77497e-09
1.54576e-05
5.03584e-09
1.54624e-05
7.64774e-09
1.54684e-05
9.56561e-09
1.54751e-05
1.08648e-08
1.54822e-05
1.16758e-08
1.54895e-05
1.21142e-08
1.54968e-05
1.22652e-08
1.55041e-05
1.21963e-08
1.55113e-05
1.19634e-08
1.55184e-05
1.16096e-08
1.55252e-05
1.11654e-08
1.55319e-05
1.06517e-08
1.55384e-05
1.00837e-08
1.55446e-05
9.47298e-09
1.55507e-05
8.82946e-09
1.55564e-05
8.15944e-09
7.48693e-09
1.5562e-05
1.88389e-05
5.24463e-10
1.88424e-05
1.49979e-09
1.88478e-05
2.28485e-09
1.88545e-05
2.87036e-09
1.88621e-05
3.27893e-09
1.88702e-05
3.54046e-09
1.88786e-05
3.67772e-09
1.88872e-05
3.70947e-09
1.88957e-05
3.65384e-09
1.89042e-05
3.52693e-09
1.89124e-05
3.34148e-09
1.89205e-05
3.10742e-09
1.89283e-05
2.83293e-09
1.89359e-05
2.52506e-09
1.89432e-05
2.19018e-09
1.89502e-05
1.83476e-09
1.89569e-05
1.46306e-09
1.09421e-09
1.89632e-05
2.29648e-05
-9.25055e-10
2.29689e-05
-2.63849e-09
2.29752e-05
-4.02709e-09
2.29832e-05
-5.04704e-09
2.29921e-05
-5.71443e-09
2.30018e-05
-6.11556e-09
2.30118e-05
-6.34357e-09
2.3022e-05
-6.45711e-09
2.30321e-05
-6.49301e-09
2.30421e-05
-6.48266e-09
2.30519e-05
-6.45145e-09
2.30615e-05
-6.41568e-09
2.30707e-05
-6.38432e-09
2.30796e-05
-6.36212e-09
2.30881e-05
-6.35123e-09
2.30963e-05
-6.35144e-09
2.31041e-05
-6.36268e-09
-6.37266e-09
2.31116e-05
1.68119e-05
-2.07289e-09
1.68151e-05
-5.87989e-09
1.682e-05
-8.96589e-09
1.68262e-05
-1.11858e-08
1.6833e-05
-1.25879e-08
1.68403e-05
-1.34061e-08
1.68478e-05
-1.3844e-08
1.68554e-05
-1.401e-08
1.68629e-05
-1.39789e-08
1.68702e-05
-1.38216e-08
1.68774e-05
-1.35929e-08
1.68843e-05
-1.33274e-08
1.68909e-05
-1.30457e-08
1.68973e-05
-1.27611e-08
1.69035e-05
-1.24819e-08
1.69093e-05
-1.22121e-08
1.69149e-05
-1.19542e-08
-1.16999e-08
1.69202e-05
1.46357e-05
-3.18427e-09
1.46388e-05
-9.04627e-09
1.46437e-05
-1.38012e-08
1.46496e-05
-1.7083e-08
1.4656e-05
-1.90372e-08
1.46628e-05
-2.01384e-08
1.46696e-05
-2.06888e-08
1.46764e-05
-2.08224e-08
1.46831e-05
-2.06591e-08
1.46896e-05
-2.03155e-08
1.46959e-05
-1.98706e-08
1.47019e-05
-1.937e-08
1.47077e-05
-1.88425e-08
1.47133e-05
-1.83084e-08
1.47186e-05
-1.77805e-08
1.47236e-05
-1.72654e-08
1.47284e-05
-1.67672e-08
-1.62804e-08
1.4733e-05
1.27412e-05
-4.23498e-09
1.27444e-05
-1.22636e-08
1.27494e-05
-1.87696e-08
1.27552e-05
-2.28915e-08
1.27613e-05
-2.51689e-08
1.27676e-05
-2.64464e-08
1.2774e-05
-2.70281e-08
1.27802e-05
-2.70409e-08
1.27862e-05
-2.66765e-08
1.2792e-05
-2.61061e-08
1.27975e-05
-2.54248e-08
1.28028e-05
-2.46824e-08
1.28079e-05
-2.3913e-08
1.28128e-05
-2.31415e-08
1.28174e-05
-2.2383e-08
1.28217e-05
-2.16448e-08
1.28259e-05
-2.09309e-08
-2.02373e-08
1.28299e-05
1.10918e-05
-5.11445e-09
1.10951e-05
-1.55919e-08
1.11004e-05
-2.40748e-08
1.11062e-05
-2.8686e-08
1.11121e-05
-3.10258e-08
1.1118e-05
-3.23837e-08
1.11239e-05
-3.29076e-08
1.11296e-05
-3.27168e-08
1.1135e-05
-3.2103e-08
1.11402e-05
-3.12826e-08
1.11451e-05
-3.03527e-08
1.11498e-05
-2.93648e-08
1.11542e-05
-2.83585e-08
1.11585e-05
-2.73614e-08
1.11625e-05
-2.63885e-08
1.11663e-05
-2.54464e-08
1.11699e-05
-2.45385e-08
-2.36612e-08
1.11733e-05
9.65583e-06
-5.73044e-09
9.65936e-06
-1.91214e-08
9.66497e-06
-2.96843e-08
9.67066e-06
-3.43802e-08
9.67632e-06
-3.66781e-08
9.68197e-06
-3.80348e-08
9.68742e-06
-3.83593e-08
9.69257e-06
-3.78711e-08
9.69745e-06
-3.69777e-08
9.70207e-06
-3.59015e-08
9.70644e-06
-3.47224e-08
9.71056e-06
-3.34918e-08
9.71446e-06
-3.22546e-08
9.71814e-06
-3.10402e-08
9.72161e-06
-2.98627e-08
9.72489e-06
-2.87282e-08
9.72799e-06
-2.76377e-08
-2.65864e-08
9.73092e-06
8.40543e-06
-5.81215e-09
8.40981e-06
-2.35006e-08
8.41532e-06
-3.51943e-08
8.42052e-06
-3.95794e-08
8.42596e-06
-4.21191e-08
8.43145e-06
-4.35187e-08
8.43661e-06
-4.35239e-08
8.44139e-06
-4.26464e-08
8.44583e-06
-4.14223e-08
8.44998e-06
-4.00515e-08
8.45385e-06
-3.85916e-08
8.45745e-06
-3.70944e-08
8.46081e-06
-3.56079e-08
8.46393e-06
-3.41611e-08
8.46683e-06
-3.27676e-08
8.46954e-06
-3.14334e-08
8.47206e-06
-3.01591e-08
-2.89408e-08
8.47441e-06
7.31506e-06
-3.58659e-09
7.32195e-06
-3.03891e-08
7.3274e-06
-4.06496e-08
7.33218e-06
-4.43546e-08
7.3375e-06
-4.74397e-08
7.34288e-06
-4.89028e-08
7.34786e-06
-4.84968e-08
7.35235e-06
-4.71398e-08
7.35641e-06
-4.54789e-08
7.36005e-06
-4.36925e-08
7.36329e-06
-4.18399e-08
7.36618e-06
-3.99841e-08
7.36875e-06
-3.81749e-08
7.37103e-06
-3.64383e-08
7.37305e-06
-3.47859e-08
7.37484e-06
-3.32223e-08
7.37642e-06
-3.17446e-08
-3.03465e-08
7.37783e-06
6.36222e-06
4.25757e-09
6.37295e-06
-4.11166e-08
6.38008e-06
-4.77803e-08
6.38627e-06
-5.05398e-08
6.39224e-06
-5.34149e-08
6.39753e-06
-5.41971e-08
6.4019e-06
-5.28631e-08
6.40549e-06
-5.07247e-08
6.4084e-06
-4.83958e-08
6.4107e-06
-4.59889e-08
6.41243e-06
-4.35715e-08
6.41367e-06
-4.12213e-08
6.41448e-06
-3.8987e-08
6.41493e-06
-3.6888e-08
6.41507e-06
-3.4931e-08
6.41497e-06
-3.31173e-08
6.41466e-06
-3.14383e-08
-2.98739e-08
6.41419e-06
5.53608e-06
1.36415e-08
5.54776e-06
-5.27925e-08
5.55745e-06
-5.74697e-08
5.56602e-06
-5.91125e-08
5.57279e-06
-6.01863e-08
5.57722e-06
-5.86228e-08
5.57937e-06
-5.50151e-08
5.57981e-06
-5.1165e-08
5.57896e-06
-4.75471e-08
5.5771e-06
-4.4133e-08
5.57446e-06
-4.09302e-08
5.57122e-06
-3.79763e-08
5.56752e-06
-3.5285e-08
5.56347e-06
-3.28477e-08
5.55919e-06
-3.06503e-08
5.55477e-06
-2.86895e-08
5.55028e-06
-2.69563e-08
-2.53898e-08
5.5458e-06
4.85751e-06
-1.6259e-08
4.86091e-06
-5.6195e-08
4.86151e-06
-5.80645e-08
4.85884e-06
-5.64476e-08
4.85484e-06
-5.61827e-08
4.84815e-06
-5.1932e-08
4.8389e-06
-4.5767e-08
4.82765e-06
-3.992e-08
4.81505e-06
-3.49447e-08
4.80168e-06
-3.07639e-08
4.78799e-06
-2.72417e-08
4.77429e-06
-2.42749e-08
4.76078e-06
-2.17727e-08
4.74759e-06
-1.96561e-08
4.7348e-06
-1.78619e-08
4.72249e-06
-1.63804e-08
4.71077e-06
-1.5238e-08
-1.49278e-08
4.70031e-06
4.18642e-06
4.13022e-06
4.07216e-06
4.01571e-06
3.95953e-06
3.9076e-06
3.86183e-06
3.82191e-06
3.78696e-06
3.7562e-06
3.72896e-06
3.70468e-06
3.68291e-06
3.66325e-06
3.64539e-06
3.62901e-06
3.61377e-06
3.59885e-06
1.18515e-08
-1.18515e-08
2.39933e-08
-1.21418e-08
3.17477e-08
-7.75444e-09
3.3963e-08
-2.21525e-09
3.06372e-08
3.32578e-09
2.25181e-08
8.11912e-09
1.05829e-08
1.19352e-08
-4.20225e-09
1.47851e-08
-2.10696e-08
1.68673e-08
-3.94898e-08
1.84202e-08
-5.91251e-08
1.96353e-08
-7.97758e-08
2.06508e-08
-1.01328e-07
2.15517e-08
-1.23711e-07
2.23838e-08
-1.46879e-07
2.31674e-08
-1.70787e-07
2.39082e-08
-1.95391e-07
2.46044e-08
-2.20642e-07
2.52512e-08
-2.46487e-07
2.58443e-08
-2.72869e-07
2.63822e-08
-2.9974e-07
2.68707e-08
-3.27067e-07
2.73277e-08
-3.5485e-07
2.77831e-08
-3.83112e-07
2.82617e-08
-4.11858e-07
2.87457e-08
-4.41016e-07
2.91579e-08
-4.70481e-07
2.94654e-08
-5.00357e-07
2.98757e-08
-5.30964e-07
3.06073e-08
-5.62107e-07
3.11427e-08
-5.93226e-07
3.11189e-08
-6.24932e-07
3.17059e-08
-6.59929e-07
3.49974e-08
-6.93386e-07
3.34571e-08
-7.28254e-07
3.48684e-08
-7.6527e-07
3.70159e-08
-8.03392e-07
3.81215e-08
-8.44247e-07
4.0855e-08
-8.84648e-07
4.04016e-08
-9.24811e-07
4.01623e-08
-9.61701e-07
3.68904e-08
-9.98695e-07
3.69935e-08
-1.03769e-06
3.90002e-08
-1.07769e-06
3.99952e-08
-1.11831e-06
4.06239e-08
-1.15933e-06
4.10172e-08
-1.20059e-06
4.12626e-08
-1.24201e-06
4.14128e-08
-1.28351e-06
4.14992e-08
-1.32505e-06
4.15399e-08
-1.36659e-06
4.15455e-08
-1.40811e-06
4.15219e-08
-1.44958e-06
4.1472e-08
-1.49098e-06
4.13969e-08
-1.53228e-06
4.12966e-08
-1.57345e-06
4.11704e-08
-1.61447e-06
4.1017e-08
-1.6553e-06
4.08351e-08
-1.69592e-06
4.0623e-08
-1.7363e-06
4.03792e-08
-1.77641e-06
4.0102e-08
-1.8162e-06
3.97901e-08
-1.85564e-06
3.94419e-08
-1.89469e-06
3.90562e-08
-1.93333e-06
3.86319e-08
-1.97149e-06
3.81679e-08
-2.00916e-06
3.76634e-08
-2.04627e-06
3.71178e-08
-2.0828e-06
3.65305e-08
-2.11871e-06
3.59012e-08
-2.15394e-06
3.52297e-08
-2.18845e-06
3.45158e-08
-2.22221e-06
3.37598e-08
-2.25517e-06
3.29619e-08
-2.2873e-06
3.21223e-08
-2.31854e-06
3.12416e-08
-2.34886e-06
3.03202e-08
-2.37822e-06
2.93589e-08
-2.40657e-06
2.83583e-08
-2.43389e-06
2.73192e-08
-2.46014e-06
2.62422e-08
-2.48526e-06
2.51281e-08
-2.50924e-06
2.39777e-08
-2.53203e-06
2.27915e-08
-2.5536e-06
2.157e-08
-2.57392e-06
2.03134e-08
-2.59294e-06
1.90218e-08
-2.61063e-06
1.76947e-08
-2.62696e-06
1.63313e-08
-2.64189e-06
1.493e-08
-2.65538e-06
1.34883e-08
-2.66739e-06
1.20028e-08
-2.67785e-06
1.04677e-08
-2.68673e-06
8.87517e-09
-2.69394e-06
7.21394e-09
-2.69941e-06
5.46699e-09
-2.70303e-06
3.62521e-09
-2.70474e-06
1.70528e-09
-2.7044e-06
-3.35197e-10
-2.70243e-06
-1.97028e-09
-2.69888e-06
-3.55294e-09
-2.69378e-06
-5.10359e-09
-2.68713e-06
-6.64626e-09
-2.67894e-06
-8.19442e-09
-2.66919e-06
-9.75032e-09
-2.65787e-06
-1.13138e-08
-2.64499e-06
-1.28832e-08
-2.63053e-06
-1.44567e-08
-2.6145e-06
-1.60321e-08
-2.59689e-06
-1.76075e-08
-2.57771e-06
-1.91805e-08
-2.55696e-06
-2.07491e-08
-2.53465e-06
-2.23112e-08
-2.51079e-06
-2.38645e-08
-2.48538e-06
-2.54071e-08
-2.45844e-06
-2.69368e-08
-2.42999e-06
-2.84513e-08
-2.40004e-06
-2.99488e-08
-2.36862e-06
-3.1427e-08
-2.33573e-06
-3.28839e-08
-2.30142e-06
-3.43175e-08
-2.26569e-06
-3.57259e-08
-2.22858e-06
-3.71071e-08
-2.19012e-06
-3.84594e-08
-2.15034e-06
-3.97809e-08
-2.10927e-06
-4.10698e-08
-2.06695e-06
-4.23246e-08
-2.0234e-06
-4.35434e-08
-1.97868e-06
-4.47247e-08
-1.93281e-06
-4.58669e-08
-1.88584e-06
-4.69687e-08
-1.83782e-06
-4.80287e-08
-1.78877e-06
-4.90459e-08
-1.73875e-06
-5.00191e-08
-1.6878e-06
-5.09473e-08
-1.63597e-06
-5.18295e-08
-1.58331e-06
-5.26649e-08
-1.52986e-06
-5.34529e-08
-1.47566e-06
-5.41931e-08
-1.42078e-06
-5.48851e-08
-1.36525e-06
-5.55286e-08
-1.30913e-06
-5.61234e-08
-1.25246e-06
-5.66697e-08
-1.19529e-06
-5.71676e-08
-1.13767e-06
-5.76177e-08
-1.07965e-06
-5.80203e-08
-1.02127e-06
-5.83762e-08
-9.62588e-07
-5.86861e-08
-9.03637e-07
-5.89512e-08
-8.44464e-07
-5.91725e-08
-7.85113e-07
-5.93514e-08
-7.25624e-07
-5.94893e-08
-6.66036e-07
-5.95879e-08
-6.06387e-07
-5.96485e-08
-5.46714e-07
-5.9673e-08
-4.87051e-07
-5.9663e-08
-4.27431e-07
-5.96198e-08
-3.67887e-07
-5.95444e-08
-3.0845e-07
-5.94371e-08
-2.49152e-07
-5.92979e-08
-1.9003e-07
-5.91216e-08
-1.31119e-07
-5.89112e-08
-7.24539e-08
-5.86654e-08
-1.40813e-08
-5.83725e-08
4.39581e-08
-5.80394e-08
1.01634e-07
-5.76759e-08
1.58952e-07
-5.73177e-08
2.15935e-07
-5.69836e-08
2.72601e-07
-5.66653e-08
3.28948e-07
-5.63475e-08
3.8496e-07
-5.60122e-08
4.40595e-07
-5.5635e-08
4.95772e-07
-5.51765e-08
5.5034e-07
-5.45679e-08
6.04014e-07
-5.36742e-08
6.56236e-07
-5.22217e-08
7.05734e-07
-4.9498e-08
7.49542e-07
-4.38086e-08
7.79524e-07
-2.99816e-08
1.19553e-08
7.67568e-07
7.98822e-09
-1.98397e-08
9.68784e-09
-1.38414e-08
6.68815e-09
-4.75475e-09
3.96942e-10
4.07596e-09
-8.55698e-09
1.22797e-08
-2.0028e-08
1.95902e-08
-3.39354e-08
2.58425e-08
-5.01578e-08
3.10075e-08
-6.84839e-08
3.51935e-08
-8.86537e-08
3.859e-08
-1.10416e-07
4.13974e-08
-1.33553e-07
4.37883e-08
-1.57895e-07
4.58935e-08
-1.83314e-07
4.78022e-08
-2.09717e-07
4.95704e-08
-2.37039e-07
5.12305e-08
-2.65235e-07
5.28008e-08
-2.94277e-07
5.42926e-08
-3.24148e-07
5.57155e-08
-3.54848e-07
5.70825e-08
-3.86391e-07
5.84132e-08
-4.18799e-07
5.97355e-08
-4.52096e-07
6.10805e-08
-4.86301e-07
6.24669e-08
-5.21436e-07
6.38801e-08
-5.57552e-07
6.5274e-08
-5.9472e-07
6.66336e-08
-6.32893e-07
6.80492e-08
-6.71877e-07
6.95908e-08
-7.11806e-07
7.10721e-08
-7.53062e-07
7.23744e-08
-7.95215e-07
7.3859e-08
-8.35892e-07
7.56751e-08
-8.7919e-07
7.67544e-08
-9.21993e-07
7.76718e-08
-9.6405e-07
7.90729e-08
-1.00584e-06
7.99147e-08
-1.04593e-06
8.09397e-08
-1.08655e-06
8.10225e-08
-1.12711e-06
8.07205e-08
-1.17001e-06
7.97923e-08
-1.21243e-06
7.94185e-08
-1.25306e-06
7.96298e-08
-1.29288e-06
7.98127e-08
-1.33217e-06
7.99168e-08
-1.3711e-06
7.99453e-08
-1.40975e-06
7.99061e-08
-1.44814e-06
7.98093e-08
-1.48631e-06
7.96629e-08
-1.52424e-06
7.94724e-08
-1.56193e-06
7.92409e-08
-1.59938e-06
7.89698e-08
-1.63657e-06
7.86586e-08
-1.67348e-06
7.8306e-08
-1.71009e-06
7.79098e-08
-1.74639e-06
7.74674e-08
-1.78235e-06
7.69761e-08
-1.81794e-06
7.64328e-08
-1.85316e-06
7.58346e-08
-1.88796e-06
7.51787e-08
-1.92232e-06
7.44623e-08
-1.95621e-06
7.36829e-08
-1.9896e-06
7.28382e-08
-2.02247e-06
7.19262e-08
-2.05479e-06
7.09451e-08
-2.08651e-06
6.98933e-08
-2.11762e-06
6.87697e-08
-2.14808e-06
6.75733e-08
-2.17785e-06
6.63032e-08
-2.20691e-06
6.49592e-08
-2.23522e-06
6.35409e-08
-2.26275e-06
6.20484e-08
-2.28947e-06
6.0482e-08
-2.31535e-06
5.88421e-08
-2.34036e-06
5.71294e-08
-2.36446e-06
5.53446e-08
-2.38763e-06
5.34888e-08
-2.40983e-06
5.15629e-08
-2.43104e-06
4.95683e-08
-2.45123e-06
4.75061e-08
-2.47037e-06
4.53776e-08
-2.48842e-06
4.31841e-08
-2.50537e-06
4.09267e-08
-2.52119e-06
3.86066e-08
-2.53584e-06
3.62247e-08
-2.54931e-06
3.37819e-08
-2.56157e-06
3.12787e-08
-2.57259e-06
2.87153e-08
-2.58235e-06
2.60918e-08
-2.59083e-06
2.34077e-08
-2.598e-06
2.06624e-08
-2.60385e-06
1.78554e-08
-2.60837e-06
1.49862e-08
-2.61155e-06
1.20552e-08
-2.6134e-06
9.06524e-09
-2.61396e-06
6.02366e-09
-2.61328e-06
2.94427e-09
-2.61151e-06
-6.50655e-11
-2.60867e-06
-3.17579e-09
-2.60449e-06
-6.14294e-09
-2.59891e-06
-9.14137e-09
-2.59184e-06
-1.21665e-08
-2.58328e-06
-1.52138e-08
-2.57319e-06
-1.82828e-08
-2.56157e-06
-2.13709e-08
-2.54841e-06
-2.44751e-08
-2.5337e-06
-2.75913e-08
-2.51744e-06
-3.07155e-08
-2.49963e-06
-3.38435e-08
-2.48026e-06
-3.6971e-08
-2.45935e-06
-4.00938e-08
-2.43689e-06
-4.32076e-08
-2.41289e-06
-4.63082e-08
-2.38737e-06
-4.93913e-08
-2.36032e-06
-5.24528e-08
-2.33177e-06
-5.54884e-08
-2.30173e-06
-5.8494e-08
-2.27021e-06
-6.14654e-08
-2.23724e-06
-6.43983e-08
-2.20284e-06
-6.72888e-08
-2.16702e-06
-7.01328e-08
-2.12982e-06
-7.29265e-08
-2.09126e-06
-7.5666e-08
-2.05137e-06
-7.83477e-08
-2.01018e-06
-8.09681e-08
-1.96773e-06
-8.35238e-08
-1.92404e-06
-8.60112e-08
-1.87916e-06
-8.8427e-08
-1.83312e-06
-9.0768e-08
-1.78595e-06
-9.30312e-08
-1.73771e-06
-9.52137e-08
-1.68842e-06
-9.73131e-08
-1.63814e-06
-9.93271e-08
-1.58691e-06
-1.01253e-07
-1.53477e-06
-1.0309e-07
-1.48176e-06
-1.04835e-07
-1.42794e-06
-1.06487e-07
-1.37335e-06
-1.08044e-07
-1.31803e-06
-1.09506e-07
-1.26205e-06
-1.10872e-07
-1.20543e-06
-1.12142e-07
-1.14824e-06
-1.13314e-07
-1.09052e-06
-1.1439e-07
-1.03232e-06
-1.15369e-07
-9.73686e-07
-1.16253e-07
-9.14664e-07
-1.17043e-07
-8.55301e-07
-1.17739e-07
-7.95643e-07
-1.18344e-07
-7.35734e-07
-1.1886e-07
-6.75618e-07
-1.19288e-07
-6.15337e-07
-1.19632e-07
-5.54932e-07
-1.19895e-07
-4.94441e-07
-1.20079e-07
-4.33902e-07
-1.20188e-07
-3.7335e-07
-1.20225e-07
-3.1282e-07
-1.20193e-07
-2.52343e-07
-1.20096e-07
-1.91952e-07
-1.19936e-07
-1.31675e-07
-1.19714e-07
-7.15424e-08
-1.19431e-07
-1.15817e-08
-1.19082e-07
4.81759e-08
-1.18669e-07
1.07701e-07
-1.1819e-07
1.66976e-07
-1.17648e-07
2.25992e-07
-1.17055e-07
2.84746e-07
-1.1643e-07
3.43235e-07
-1.15807e-07
4.01453e-07
-1.15201e-07
4.59393e-07
-1.14606e-07
5.17044e-07
-1.13999e-07
5.74381e-07
-1.13349e-07
6.31355e-07
-1.12609e-07
6.87879e-07
-1.117e-07
7.43795e-07
-1.10484e-07
7.98822e-07
-1.08701e-07
8.52441e-07
-1.05841e-07
9.03647e-07
-1.00704e-07
9.50761e-07
-9.09218e-08
9.90464e-07
-6.96845e-08
-2.03612e-08
1.02278e-06
-1.0056e-09
-1.88341e-08
-7.72354e-09
-7.1235e-09
-1.71861e-08
4.70776e-09
-2.84688e-08
1.53587e-08
-4.12628e-08
2.50737e-08
-5.55244e-08
3.38518e-08
-7.13214e-08
4.16396e-08
-8.87338e-08
4.84199e-08
-1.07788e-07
5.42472e-08
-1.28437e-07
5.92392e-08
-1.50584e-07
6.35447e-08
-1.7411e-07
6.73138e-08
-1.98893e-07
7.06772e-08
-2.2483e-07
7.37383e-08
-2.51832e-07
7.65728e-08
-2.79835e-07
7.92337e-08
-3.08792e-07
8.17578e-08
-3.38672e-07
8.4172e-08
-3.69455e-07
8.64985e-08
-4.01131e-07
8.87591e-08
-4.33695e-07
9.09769e-08
-4.67135e-07
9.31754e-08
-5.01427e-07
9.5373e-08
-5.36534e-07
9.75732e-08
-5.7241e-07
9.97565e-08
-6.09023e-07
1.01887e-07
-6.46329e-07
1.0394e-07
-6.84197e-07
1.05917e-07
-7.22419e-07
1.07812e-07
-7.6091e-07
1.09564e-07
-7.99664e-07
1.11128e-07
-8.38365e-07
1.1256e-07
-8.76524e-07
1.13834e-07
-9.1463e-07
1.1486e-07
-9.52582e-07
1.15623e-07
-9.89799e-07
1.1629e-07
-1.0266e-06
1.16715e-07
-1.06259e-06
1.16933e-07
-1.09839e-06
1.16825e-07
-1.13412e-06
1.16445e-07
-1.17026e-06
1.1593e-07
-1.20634e-06
1.15499e-07
-1.24191e-06
1.15205e-07
-1.27706e-06
1.14964e-07
-1.31188e-06
1.14736e-07
-1.34644e-06
1.14497e-07
-1.38076e-06
1.14232e-07
-1.41489e-06
1.13936e-07
-1.44883e-06
1.13602e-07
-1.48258e-06
1.1323e-07
-1.51616e-06
1.12813e-07
-1.54954e-06
1.1235e-07
-1.58272e-06
1.11837e-07
-1.61568e-06
1.11268e-07
-1.64841e-06
1.1064e-07
-1.68089e-06
1.09948e-07
-1.7131e-06
1.09187e-07
-1.74502e-06
1.08352e-07
-1.77662e-06
1.0744e-07
-1.80789e-06
1.06447e-07
-1.8388e-06
1.05367e-07
-1.86931e-06
1.04199e-07
-1.89941e-06
1.02937e-07
-1.92907e-06
1.0158e-07
-1.95825e-06
1.00126e-07
-1.98692e-06
9.85704e-08
-2.01507e-06
9.6913e-08
-2.04265e-06
9.51521e-08
-2.06963e-06
9.32866e-08
-2.09599e-06
9.13156e-08
-2.12168e-06
8.92388e-08
-2.14669e-06
8.70561e-08
-2.17098e-06
8.47678e-08
-2.19451e-06
8.23743e-08
-2.21726e-06
7.98765e-08
-2.23919e-06
7.72755e-08
-2.26027e-06
7.45723e-08
-2.28048e-06
7.17686e-08
-2.29977e-06
6.8866e-08
-2.31813e-06
6.5866e-08
-2.33553e-06
6.27706e-08
-2.35192e-06
5.95816e-08
-2.3673e-06
5.63009e-08
-2.38162e-06
5.29303e-08
-2.39487e-06
4.94716e-08
-2.40701e-06
4.59265e-08
-2.41803e-06
4.22966e-08
-2.4279e-06
3.85833e-08
-2.4366e-06
3.4788e-08
-2.4441e-06
3.09123e-08
-2.4504e-06
2.69578e-08
-2.45547e-06
2.29271e-08
-2.45931e-06
1.88234e-08
-2.4619e-06
1.4652e-08
-2.46326e-06
1.04206e-08
-2.46337e-06
6.14013e-09
-2.46226e-06
1.82796e-09
-2.45983e-06
-2.48799e-09
-2.45617e-06
-6.84266e-09
-2.4511e-06
-1.12124e-08
-2.44461e-06
-1.56286e-08
-2.43669e-06
-2.00914e-08
-2.4273e-06
-2.45964e-08
-2.41645e-06
-2.9138e-08
-2.40411e-06
-3.37103e-08
-2.39028e-06
-3.83072e-08
-2.37495e-06
-4.29225e-08
-2.35811e-06
-4.75499e-08
-2.33977e-06
-5.21831e-08
-2.31993e-06
-5.68156e-08
-2.29858e-06
-6.14412e-08
-2.27573e-06
-6.60535e-08
-2.2514e-06
-7.06461e-08
-2.22557e-06
-7.52131e-08
-2.19828e-06
-7.97479e-08
-2.16952e-06
-8.42446e-08
-2.13932e-06
-8.86967e-08
-2.10769e-06
-9.30982e-08
-2.07464e-06
-9.74428e-08
-2.04021e-06
-1.01724e-07
-2.0044e-06
-1.05937e-07
-1.96725e-06
-1.10075e-07
-1.92879e-06
-1.14133e-07
-1.88903e-06
-1.18105e-07
-1.84801e-06
-1.21986e-07
-1.80577e-06
-1.25771e-07
-1.76232e-06
-1.29455e-07
-1.71772e-06
-1.33032e-07
-1.67199e-06
-1.36498e-07
-1.62517e-06
-1.39849e-07
-1.5773e-06
-1.43081e-07
-1.52843e-06
-1.46188e-07
-1.47858e-06
-1.49169e-07
-1.42782e-06
-1.5202e-07
-1.37617e-06
-1.54737e-07
-1.32369e-06
-1.57319e-07
-1.27041e-06
-1.59762e-07
-1.21639e-06
-1.62064e-07
-1.16167e-06
-1.64225e-07
-1.1063e-06
-1.66244e-07
-1.05033e-06
-1.68119e-07
-9.9379e-07
-1.6985e-07
-9.36743e-07
-1.71437e-07
-8.79231e-07
-1.72881e-07
-8.21301e-07
-1.74183e-07
-7.62998e-07
-1.75346e-07
-7.04368e-07
-1.7637e-07
-6.45454e-07
-1.77258e-07
-5.86301e-07
-1.78013e-07
-5.2695e-07
-1.78639e-07
-4.67443e-07
-1.7914e-07
-4.07818e-07
-1.79519e-07
-3.48114e-07
-1.79783e-07
-2.88367e-07
-1.79935e-07
-2.28612e-07
-1.7998e-07
-1.68881e-07
-1.79924e-07
-1.09206e-07
-1.79772e-07
-4.96154e-08
-1.79527e-07
9.86329e-09
-1.79192e-07
6.92021e-08
-1.78769e-07
1.28377e-07
-1.78257e-07
1.87365e-07
-1.77657e-07
2.46149e-07
-1.76975e-07
3.04725e-07
-1.76224e-07
3.63099e-07
-1.75429e-07
4.21274e-07
-1.74605e-07
4.79233e-07
-1.73766e-07
5.36957e-07
-1.72926e-07
5.94432e-07
-1.7208e-07
6.51638e-07
-1.71204e-07
7.08545e-07
-1.70257e-07
7.65105e-07
-1.69168e-07
8.2123e-07
-1.67825e-07
8.76774e-07
-1.66029e-07
9.31489e-07
-1.63416e-07
9.84953e-07
-1.59305e-07
1.03651e-06
-1.52265e-07
1.08523e-06
-1.39643e-07
1.13066e-06
-1.15106e-07
-6.67313e-08
1.17703e-06
-8.84403e-09
-9.99006e-09
-2.1515e-08
5.5475e-09
-3.55146e-08
1.87073e-08
-5.04103e-08
3.02544e-08
-6.61176e-08
4.0781e-08
-8.26897e-08
5.04239e-08
-1.00243e-07
5.91924e-08
-1.18903e-07
6.70806e-08
-1.38769e-07
7.41135e-08
-1.59888e-07
8.03581e-08
-1.82257e-07
8.59129e-08
-2.05833e-07
9.089e-08
-2.30554e-07
9.53985e-08
-2.5635e-07
9.95344e-08
-2.83153e-07
1.03375e-07
-3.109e-07
1.06981e-07
-3.39539e-07
1.10397e-07
-3.69023e-07
1.13656e-07
-3.99308e-07
1.16784e-07
-4.30352e-07
1.19803e-07
-4.62105e-07
1.2273e-07
-4.94507e-07
1.25577e-07
-5.27482e-07
1.28348e-07
-5.60942e-07
1.31034e-07
-5.94795e-07
1.33609e-07
-6.28949e-07
1.36041e-07
-6.63309e-07
1.38299e-07
-6.97757e-07
1.40365e-07
-7.32166e-07
1.42222e-07
-7.66447e-07
1.43844e-07
-8.00541e-07
1.45223e-07
-8.34351e-07
1.4637e-07
-8.67811e-07
1.47294e-07
-9.00932e-07
1.47981e-07
-9.33766e-07
1.48457e-07
-9.66226e-07
1.4875e-07
-9.98368e-07
1.48858e-07
-1.03022e-06
1.48788e-07
-1.06193e-06
1.4853e-07
-1.0936e-06
1.48115e-07
-1.12529e-06
1.47623e-07
-1.15694e-06
1.47147e-07
-1.18845e-06
1.46719e-07
-1.21981e-06
1.46326e-07
-1.25103e-06
1.45949e-07
-1.2821e-06
1.45572e-07
-1.31305e-06
1.4518e-07
-1.34388e-06
1.44764e-07
-1.37459e-06
1.44313e-07
-1.40518e-06
1.43822e-07
-1.43565e-06
1.43282e-07
-1.46598e-06
1.42686e-07
-1.49618e-06
1.42027e-07
-1.52621e-06
1.413e-07
-1.55606e-06
1.40497e-07
-1.58573e-06
1.39611e-07
-1.61518e-06
1.38637e-07
-1.64439e-06
1.37568e-07
-1.67335e-06
1.36398e-07
-1.70203e-06
1.35123e-07
-1.7304e-06
1.33736e-07
-1.75843e-06
1.32234e-07
-1.78611e-06
1.30612e-07
-1.81339e-06
1.28865e-07
-1.84026e-06
1.26992e-07
-1.86668e-06
1.24988e-07
-1.89261e-06
1.22852e-07
-1.91804e-06
1.20582e-07
-1.94293e-06
1.18175e-07
-1.96725e-06
1.15632e-07
-1.99096e-06
1.12951e-07
-2.01404e-06
1.10132e-07
-2.03645e-06
1.07176e-07
-2.05816e-06
1.04083e-07
-2.07913e-06
1.00854e-07
-2.09935e-06
9.74905e-08
-2.11877e-06
9.39938e-08
-2.13737e-06
9.03657e-08
-2.15511e-06
8.66084e-08
-2.17197e-06
8.27242e-08
-2.18791e-06
7.87155e-08
-2.20292e-06
7.45848e-08
-2.21695e-06
7.03347e-08
-2.22999e-06
6.59678e-08
-2.242e-06
6.14869e-08
-2.25297e-06
5.68945e-08
-2.26287e-06
5.21933e-08
-2.27167e-06
4.7386e-08
-2.27936e-06
4.24752e-08
-2.28591e-06
3.7464e-08
-2.29131e-06
3.23556e-08
-2.29553e-06
2.7154e-08
-2.29857e-06
2.18642e-08
-2.30041e-06
1.64924e-08
-2.30104e-06
1.10463e-08
-2.30043e-06
5.53519e-09
-2.29857e-06
-3.28043e-11
-2.29542e-06
-5.64551e-09
-2.29094e-06
-1.13146e-08
-2.28511e-06
-1.70421e-08
-2.27791e-06
-2.28364e-08
-2.2693e-06
-2.86939e-08
-2.25929e-06
-3.46086e-08
-2.24786e-06
-4.05726e-08
-2.23499e-06
-4.65779e-08
-2.22068e-06
-5.2616e-08
-2.20493e-06
-5.86787e-08
-2.18772e-06
-6.47574e-08
-2.16906e-06
-7.08438e-08
-2.14894e-06
-7.69295e-08
-2.12738e-06
-8.30062e-08
-2.10437e-06
-8.90655e-08
-2.07991e-06
-9.50991e-08
-2.05403e-06
-1.01099e-07
-2.02672e-06
-1.07057e-07
-1.998e-06
-1.12964e-07
-1.96788e-06
-1.18814e-07
-1.93638e-06