/*--------------------------------*- C++ -*----------------------------------*\
  =========                 |
  \\      /  F ield         | OpenFOAM: The Open Source CFD Toolbox
   \\    /   O peration     | Website:  https://openfoam.org
    \\  /    A nd           | Version:  11
     \\/     M anipulation  |
\*---------------------------------------------------------------------------*/
FoamFile
{
    format      ascii;
    class       volVectorField;
    location    "0.14";
    object      U;
}
// * * * * * * * * * * * * * * * * * * * * * * * * * * * * * * * * * * * * * //

dimensions      [0 1 -1 0 0 0 0];

internalField   nonuniform List<vector> 
12225
(
(9.86107 -0.874317 0)
(9.67246 -0.700189 0)
(9.45892 -0.387587 0)
(9.22458 -0.18847 0)
(9.00335 -0.0843845 0)
(8.8102 -0.0328642 0)
(8.64484 -0.00753557 0)
(8.50374 0.00504417 0)
(8.38345 0.0113612 0)
(8.28043 0.014504 0)
(8.19129 0.0160083 0)
(8.11314 0.0166904 0)
(8.04359 0.0169953 0)
(7.98079 0.0172201 0)
(7.92174 0.0175594 0)
(7.86744 0.0187864 0)
(7.79652 0.0218169 0)
(7.76993 0.0313887 0)
(10.0547 0.263071 0)
(10.1201 0.360745 0)
(10.118 0.273828 0)
(10.0826 0.1871 0)
(10.0405 0.131178 0)
(9.99383 0.0969477 0)
(9.93998 0.0755843 0)
(9.8802 0.0617846 0)
(9.81757 0.0523885 0)
(9.75456 0.0455838 0)
(9.69262 0.0404288 0)
(9.63257 0.036465 0)
(9.57476 0.0334399 0)
(9.51959 0.0313441 0)
(9.46624 0.0300195 0)
(9.41725 0.0313068 0)
(9.36533 0.0326308 0)
(9.34052 0.0540302 0)
(9.99919 0.0460887 0)
(10.0244 0.0342159 0)
(10.0538 0.0149609 0)
(10.0707 0.021828 0)
(10.0778 0.0366961 0)
(10.0782 0.0460395 0)
(10.0721 0.0499886 0)
(10.0601 0.0511903 0)
(10.0437 0.0511104 0)
(10.0242 0.0504114 0)
(10.0026 0.0494662 0)
(9.97944 0.0485238 0)
(9.95515 0.0477385 0)
(9.93018 0.0473555 0)
(9.90447 0.0474562 0)
(9.87907 0.049443 0)
(9.85316 0.0524671 0)
(9.83313 0.0645809 0)
(9.9968 0.00643039 0)
(10.0085 0.0250263 0)
(10.0342 0.0389517 0)
(10.0528 0.0503227 0)
(10.0643 0.0571361 0)
(10.073 0.0592019 0)
(10.0788 0.0589015 0)
(10.0814 0.0579957 0)
(10.0813 0.0570071 0)
(10.0792 0.0560126 0)
(10.0754 0.0550672 0)
(10.0702 0.054261 0)
(10.0638 0.0536897 0)
(10.0564 0.0535586 0)
(10.0482 0.0540133 0)
(10.0398 0.0559783 0)
(10.0317 0.0591177 0)
(10.0261 0.066093 0)
(9.99922 0.00674075 0)
(10.0081 0.0335843 0)
(10.0271 0.0460615 0)
(10.0418 0.0508717 0)
(10.0524 0.0539502 0)
(10.0621 0.0555505 0)
(10.0707 0.0559113 0)
(10.0773 0.0557446 0)
(10.082 0.0553978 0)
(10.0854 0.0549638 0)
(10.0876 0.0545194 0)
(10.0889 0.0541731 0)
(10.0893 0.0540401 0)
(10.089 0.0543051 0)
(10.0882 0.0551312 0)
(10.0873 0.0570394 0)
(10.087 0.0598455 0)
(10.0886 0.0640855 0)
(10.0002 0.00907833 0)
(10.0078 0.0321379 0)
(10.0225 0.0419338 0)
(10.035 0.0456983 0)
(10.0447 0.04917 0)
(10.0541 0.0517207 0)
(10.0629 0.0528767 0)
(10.0703 0.0532497 0)
(10.0764 0.0533162 0)
(10.0816 0.0532423 0)
(10.0859 0.0531221 0)
(10.0896 0.0530675 0)
(10.0926 0.0531946 0)
(10.0951 0.0536557 0)
(10.0973 0.054584 0)
(10.0996 0.0562388 0)
(10.1026 0.0584617 0)
(10.1069 0.0611077 0)
(10.0003 0.0088058 0)
(10.0068 0.0275341 0)
(10.0189 0.0371102 0)
(10.0302 0.0417804 0)
(10.0394 0.0457153 0)
(10.0481 0.0485568 0)
(10.0565 0.0499872 0)
(10.0639 0.0506052 0)
(10.0703 0.0508983 0)
(10.076 0.0510405 0)
(10.0811 0.0511212 0)
(10.0857 0.051244 0)
(10.0898 0.0515152 0)
(10.0935 0.0520515 0)
(10.0972 0.0529429 0)
(10.1009 0.0542912 0)
(10.1053 0.0559328 0)
(10.1106 0.0575415 0)
(10.0004 0.00784388 0)
(10.0057 0.0237142 0)
(10.016 0.0334016 0)
(10.0264 0.0386342 0)
(10.0351 0.0425457 0)
(10.0432 0.0453587 0)
(10.0511 0.0469359 0)
(10.0583 0.0477439 0)
(10.0647 0.048209 0)
(10.0705 0.0485065 0)
(10.0759 0.0487263 0)
(10.0808 0.0489634 0)
(10.0854 0.0493103 0)
(10.0897 0.0498512 0)
(10.094 0.0506353 0)
(10.0985 0.0516748 0)
(10.1034 0.052805 0)
(10.1089 0.0537065 0)
(10.0004 0.006959 0)
(10.0049 0.0207305 0)
(10.0136 0.0300732 0)
(10.0229 0.0354557 0)
(10.0312 0.0392591 0)
(10.0388 0.0420413 0)
(10.0463 0.0437576 0)
(10.0532 0.0447344 0)
(10.0595 0.0453378 0)
(10.0653 0.0457509 0)
(10.0708 0.046068 0)
(10.0758 0.0463746 0)
(10.0806 0.0467478 0)
(10.0853 0.0472451 0)
(10.0899 0.0478847 0)
(10.0947 0.0486337 0)
(10.0997 0.0493407 0)
(10.1052 0.0497555 0)
(10.0004 0.0061734 0)
(10.0042 0.0181486 0)
(10.0116 0.0268416 0)
(10.0199 0.0322011 0)
(10.0276 0.0359311 0)
(10.0349 0.0386854 0)
(10.0419 0.0404978 0)
(10.0486 0.0416031 0)
(10.0548 0.0423125 0)
(10.0605 0.0428106 0)
(10.0659 0.0431934 0)
(10.0711 0.0435363 0)
(10.076 0.0439013 0)
(10.0808 0.044326 0)
(10.0855 0.0448089 0)
(10.0904 0.0453003 0)
(10.0954 0.0456728 0)
(10.1007 0.0457523 0)
(10.0003 0.00543778 0)
(10.0036 0.0158295 0)
(10.0099 0.0237614 0)
(10.0173 0.0289801 0)
(10.0245 0.0326211 0)
(10.0313 0.0353115 0)
(10.038 0.0371607 0)
(10.0444 0.0383502 0)
(10.0504 0.0391364 0)
(10.0561 0.0396938 0)
(10.0614 0.0401168 0)
(10.0665 0.0404711 0)
(10.0715 0.0408057 0)
(10.0763 0.0411445 0)
(10.0811 0.0414762 0)
(10.0859 0.0417508 0)
(10.0909 0.041869 0)
(10.0959 0.0417206 0)
(10.0003 0.00478642 0)
(10.0031 0.0138876 0)
(10.0085 0.0210925 0)
(10.0152 0.0260804 0)
(10.0219 0.0295964 0)
(10.0284 0.0321943 0)
(10.0347 0.0340321 0)
(10.0409 0.035261 0)
(10.0468 0.0360907 0)
(10.0523 0.0366799 0)
(10.0576 0.0371188 0)
(10.0627 0.0374654 0)
(10.0676 0.0377589 0)
(10.0724 0.0380153 0)
(10.0772 0.0382209 0)
(10.0819 0.038333 0)
(10.0867 0.0382774 0)
(10.0915 0.0379898 0)
(10.0003 0.00418101 0)
(10.0027 0.0121236 0)
(10.0075 0.0185834 0)
(10.0134 0.0232499 0)
(10.0196 0.026598 0)
(10.0258 0.0290795 0)
(10.0318 0.0308715 0)
(10.0377 0.0321074 0)
(10.0434 0.032957 0)
(10.0488 0.0335594 0)
(10.054 0.0339987 0)
(10.0591 0.0343262 0)
(10.0639 0.0345738 0)
(10.0687 0.0347528 0)
(10.0734 0.034851 0)
(10.0781 0.0348353 0)
(10.0827 0.0346524 0)
(10.0873 0.034272 0)
(10.0003 0.00355027 0)
(10.0024 0.0102886 0)
(10.0064 0.0158966 0)
(10.0117 0.0201106 0)
(10.0174 0.023203 0)
(10.0231 0.0255096 0)
(10.0288 0.027204 0)
(10.0345 0.0284045 0)
(10.0399 0.0292435 0)
(10.0452 0.0298358 0)
(10.0503 0.0302559 0)
(10.0553 0.0305486 0)
(10.0601 0.0307398 0)
(10.0648 0.0308382 0)
(10.0694 0.0308355 0)
(10.0739 0.0307099 0)
(10.0783 0.0304279 0)
(10.0826 0.0299844 0)
(10.0002 0.00289251 0)
(10.002 0.00838159 0)
(10.0055 0.0130418 0)
(10.0101 0.0166684 0)
(10.0153 0.0193956 0)
(10.0206 0.0214495 0)
(10.0259 0.0229797 0)
(10.0313 0.0240872 0)
(10.0365 0.0248711 0)
(10.0416 0.0254198 0)
(10.0466 0.0257952 0)
(10.0514 0.026035 0)
(10.0561 0.0261602 0)
(10.0607 0.0261789 0)
(10.0652 0.0260879 0)
(10.0695 0.0258765 0)
(10.0737 0.0255272 0)
(10.0778 0.025052 0)
(10.0002 0.00220796 0)
(10.0017 0.00640283 0)
(10.0047 0.0100235 0)
(10.0088 0.0129239 0)
(10.0134 0.0151575 0)
(10.0183 0.0168602 0)
(10.0233 0.0181428 0)
(10.0283 0.019084 0)
(10.0333 0.019754 0)
(10.0383 0.0202152 0)
(10.0431 0.0205144 0)
(10.0477 0.020681 0)
(10.0523 0.0207322 0)
(10.0567 0.020676 0)
(10.061 0.0205137 0)
(10.0652 0.0202434 0)
(10.0692 0.0198584 0)
(10.0731 0.0193803 0)
(10.0002 0.0014933 0)
(10.0015 0.00433523 0)
(10.0041 0.00681868 0)
(10.0077 0.00885212 0)
(10.0118 0.0104508 0)
(10.0164 0.0116848 0)
(10.021 0.0126212 0)
(10.0258 0.0133111 0)
(10.0306 0.0137979 0)
(10.0353 0.0141202 0)
(10.0399 0.0143078 0)
(10.0444 0.0143808 0)
(10.0488 0.0143517 0)
(10.053 0.0142276 0)
(10.0572 0.0140123 0)
(10.0611 0.0137086 0)
(10.0649 0.0133159 0)
(10.0686 0.0128585 0)
(10.0001 0.000730626 0)
(10.0013 0.00212213 0)
(10.0037 0.00334653 0)
(10.0069 0.00436327 0)
(10.0108 0.00517528 0)
(10.015 0.00580762 0)
(10.0194 0.00628554 0)
(10.024 0.0066293 0)
(10.0285 0.00685668 0)
(10.033 0.00698346 0)
(10.0375 0.00702196 0)
(10.0418 0.00698073 0)
(10.0461 0.00686548 0)
(10.0501 0.0066802 0)
(10.0541 0.00642802 0)
(10.0579 0.00611249 0)
(10.0615 0.0057348 0)
(10.065 0.00531732 0)
(10.0001 -0.000127067 0)
(10.0013 -0.000369516 0)
(10.0035 -0.000583619 0)
(10.0067 -0.000756175 0)
(10.0104 -0.00088416 0)
(10.0145 -0.000981072 0)
(10.0189 -0.00106594 0)
(10.0233 -0.00115253 0)
(10.0277 -0.00124958 0)
(10.0321 -0.00136441 0)
(10.0364 -0.00150381 0)
(10.0406 -0.00167309 0)
(10.0447 -0.0018759 0)
(10.0487 -0.00211439 0)
(10.0525 -0.00238952 0)
(10.0561 -0.00270059 0)
(10.0596 -0.00304795 0)
(10.0629 -0.00341484 0)
(10.0001 -0.000952359 0)
(10.0014 -0.00277383 0)
(10.0038 -0.00438232 0)
(10.0071 -0.0056953 0)
(10.0111 -0.00670609 0)
(10.0154 -0.00747596 0)
(10.0198 -0.00807175 0)
(10.0243 -0.0085387 0)
(10.0288 -0.00891139 0)
(10.0332 -0.00922199 0)
(10.0375 -0.00949724 0)
(10.0417 -0.00975602 0)
(10.0457 -0.0100111 0)
(10.0496 -0.0102714 0)
(10.0534 -0.0105431 0)
(10.0569 -0.0108295 0)
(10.0603 -0.0111336 0)
(10.0636 -0.0114443 0)
(10.0002 -0.0016677 0)
(10.0015 -0.00488142 0)
(10.0042 -0.00771236 0)
(10.008 -0.00995679 0)
(10.0123 -0.0116299 0)
(10.0169 -0.0128881 0)
(10.0215 -0.0138491 0)
(10.0262 -0.0145724 0)
(10.0308 -0.0151121 0)
(10.0354 -0.0155274 0)
(10.0397 -0.0158653 0)
(10.0439 -0.0161565 0)
(10.048 -0.0164207 0)
(10.0519 -0.0166719 0)
(10.0556 -0.0169203 0)
(10.0591 -0.0171719 0)
(10.0625 -0.017431 0)
(10.0657 -0.0176904 0)
(10.0002 -0.00235107 0)
(10.0017 -0.00697442 0)
(10.0049 -0.0110555 0)
(10.0092 -0.0141361 0)
(10.0141 -0.0163099 0)
(10.019 -0.0179143 0)
(10.024 -0.0191295 0)
(10.029 -0.0200199 0)
(10.0338 -0.0206576 0)
(10.0384 -0.0211254 0)
(10.0429 -0.0214847 0)
(10.0471 -0.021774 0)
(10.0512 -0.0220196 0)
(10.0551 -0.0222409 0)
(10.0588 -0.0224513 0)
(10.0623 -0.0226586 0)
(10.0657 -0.0228683 0)
(10.0689 -0.0230754 0)
(10.0002 -0.00298804 0)
(10.0018 -0.00908746 0)
(10.0056 -0.0144442 0)
(10.0109 -0.0182727 0)
(10.0164 -0.0208756 0)
(10.0218 -0.0227529 0)
(10.027 -0.0240992 0)
(10.0323 -0.0250203 0)
(10.0373 -0.0256539 0)
(10.0421 -0.0261115 0)
(10.0466 -0.0264535 0)
(10.051 -0.0267149 0)
(10.0551 -0.0269245 0)
(10.059 -0.0271053 0)
(10.0627 -0.0272722 0)
(10.0662 -0.0274336 0)
(10.0696 -0.0275951 0)
(10.0727 -0.0277535 0)
(10.0001 -0.00356538 0)
(10.0019 -0.0115221 0)
(10.0065 -0.0179038 0)
(10.0127 -0.0220181 0)
(10.019 -0.0249879 0)
(10.0248 -0.0272743 0)
(10.0305 -0.0288018 0)
(10.036 -0.0296999 0)
(10.0412 -0.0302455 0)
(10.0462 -0.0306166 0)
(10.0508 -0.0308795 0)
(10.0552 -0.0310663 0)
(10.0594 -0.0312066 0)
(10.0633 -0.0313238 0)
(10.067 -0.0314318 0)
(10.0705 -0.0315377 0)
(10.0738 -0.0316449 0)
(10.0769 -0.0317497 0)
(9.99997 -0.00368644 0)
(10.0018 -0.0151694 0)
(10.0076 -0.0226322 0)
(10.0148 -0.0259531 0)
(10.0214 -0.0285061 0)
(10.0278 -0.0309578 0)
(10.0341 -0.0327252 0)
(10.0401 -0.0337531 0)
(10.0456 -0.0343426 0)
(10.0507 -0.0347027 0)
(10.0554 -0.0349168 0)
(10.0599 -0.0350337 0)
(10.064 -0.0350959 0)
(10.0679 -0.0351328 0)
(10.0714 -0.0351612 0)
(10.0748 -0.0351893 0)
(10.0779 -0.0352207 0)
(10.0808 -0.0352532 0)
(9.99898 -0.00130668 0)
(9.99999 -0.0179662 0)
(10.0085 -0.0290556 0)
(10.0174 -0.0326731 0)
(10.0244 -0.0340891 0)
(10.0312 -0.0353069 0)
(10.0383 -0.0362451 0)
(10.0449 -0.0368785 0)
(10.0508 -0.0373199 0)
(10.0561 -0.0376094 0)
(10.0607 -0.0377619 0)
(10.0649 -0.0378132 0)
(10.0687 -0.0378049 0)
(10.072 -0.0377663 0)
(10.0749 -0.0377158 0)
(10.0775 -0.0376647 0)
(10.0798 -0.0376165 0)
(10.0818 -0.0375706 0)
(9.99528 0.0038707 0)
(9.99334 -0.0103065 0)
(10.007 -0.0270942 0)
(10.0212 -0.0389119 0)
(10.0311 -0.044844 0)
(10.0392 -0.0464441 0)
(10.0466 -0.0459539 0)
(10.053 -0.0449902 0)
(10.0582 -0.044108 0)
(10.0622 -0.0433285 0)
(10.0653 -0.0426083 0)
(10.0676 -0.0419447 0)
(10.0692 -0.041344 0)
(10.0702 -0.040806 0)
(10.0707 -0.0403282 0)
(10.0707 -0.0399099 0)
(10.0703 -0.0395413 0)
(10.0697 -0.0391958 0)
(9.99144 -0.0172922 0)
(9.99189 0.00036931 0)
(10.01 0.0176719 0)
(10.0296 0.0115978 0)
(10.0442 -0.00509525 0)
(10.0541 -0.0188076 0)
(10.06 -0.0271504 0)
(10.0623 -0.0320241 0)
(10.0618 -0.0349021 0)
(10.0592 -0.0365039 0)
(10.055 -0.0372773 0)
(10.0497 -0.0375472 0)
(10.0434 -0.0375268 0)
(10.0363 -0.0373455 0)
(10.0288 -0.0370871 0)
(10.0209 -0.0368127 0)
(10.0128 -0.036578 0)
(10.0047 -0.0363516 0)
(10.0235 -0.206007 0)
(10.0684 -0.312336 0)
(10.0789 -0.255588 0)
(10.0704 -0.18417 0)
(10.0606 -0.134892 0)
(10.0499 -0.102715 0)
(10.0342 -0.081152 0)
(10.013 -0.0666034 0)
(9.98787 -0.0566095 0)
(9.96065 -0.0494517 0)
(9.93246 -0.0440923 0)
(9.90398 -0.0399419 0)
(9.87571 -0.0366422 0)
(9.84799 -0.0339605 0)
(9.82104 -0.0317488 0)
(9.795 -0.0299437 0)
(9.7701 -0.0285148 0)
(9.74636 -0.0277786 0)
(9.94226 0.671595 0)
(9.87996 0.567456 0)
(9.77446 0.33847 0)
(9.6324 0.183323 0)
(9.48769 0.0949108 0)
(9.35659 0.0470889 0)
(9.24105 0.0213053 0)
(9.13957 0.00708514 0)
(9.05066 -0.000972923 0)
(8.9727 -0.00561283 0)
(8.90397 -0.00830073 0)
(8.84292 -0.00986173 0)
(8.78833 -0.0107661 0)
(8.73919 -0.0112825 0)
(8.69467 -0.011572 0)
(8.65408 -0.0117591 0)
(8.61658 -0.0119376 0)
(8.58175 -0.0124687 0)
(0.00541383 -0.01192 -3.49793e-20)
(0.0168801 -0.0166238 3.42847e-20)
(0.0256222 -0.0131051 0)
(0.0302956 -0.00627554 0)
(0.0298372 0.00122657 0)
(0.0245621 0.00777392 -3.153e-20)
(0.0154379 0.0126666 0)
(0.00335763 0.0159192 0)
(-0.0108668 0.0179397 0)
(-0.0266522 0.0191985 0)
(-0.0436569 0.02005 2.81724e-20)
(-0.061649 0.0207179 0)
(-0.0804977 0.0213208 0)
(-0.10013 0.021908 0)
(-0.120498 0.0224894 0)
(-0.141565 0.0230556 2.49903e-20)
(-0.163296 0.0235897 0)
(-0.185648 0.0240741 0)
(-0.208577 0.024494 0)
(-0.232036 0.0248422 0)
(-0.255976 0.0251264 0)
(-0.280358 0.0253805 0)
(-0.305166 0.0256691 0)
(-0.330418 0.0260562 2.17899e-20)
(-0.35614 0.0265169 -2.15185e-20)
(-0.382286 0.0268805 2.12702e-20)
(-0.408772 0.0271035 2.10434e-20)
(-0.43566 0.0278012 0)
(-0.463055 0.0295013 0)
(-0.490928 0.0306679 -2.04662e-20)
(-0.519272 0.0305952 -2.02971e-20)
(-0.548175 0.0328605 0)
(-0.577598 0.0430007 0)
(-0.608745 0.0351791 -2.12101e-20)
(-0.640997 0.0385241 0)
(-0.672218 0.0440129 0)
(-0.708149 0.0474587 2.03596e-20)
(-0.743047 0.0556724 0)
(-0.781279 0.0521986 2.13009e-20)
(-0.817285 0.0476038 4.21177e-20)
(-0.852835 0.0324396 0)
(-0.886875 0.0281084 0)
(-0.921483 0.0308323 0)
(-0.957991 0.0316878 0)
(-0.995146 0.0321751 0)
(-1.03281 0.0324072 3.9485e-20)
(-1.07081 0.0324871 3.90689e-20)
(-1.10903 0.0324735 3.86635e-20)
(-1.14741 0.0324002 0)
(-1.1859 0.0322866 -3.78838e-20)
(-1.22447 0.0321442 0)
(-1.26308 0.0319791 3.71427e-20)
(-1.30171 0.0317949 3.67854e-20)
(-1.34035 0.0315931 0)
(-1.37896 0.0313741 0)
(-1.41753 0.0311379 0)
(-1.45603 0.0308838 3.54312e-20)
(-1.49444 0.0306111 0)
(-1.53273 0.0303187 0)
(-1.57087 0.0300059 0)
(-1.60884 0.0296717 0)
(-1.6466 0.0293153 0)
(-1.68411 0.0289362 0)
(-1.72136 0.0285336 0)
(-1.7583 0.0281073 0)
(-1.79489 0.0276568 -3.2677e-20)
(-1.8311 0.0271821 0)
(-1.86689 0.0266831 0)
(-1.90222 0.0261599 3.17982e-20)
(-1.93706 0.0256127 3.15051e-20)
(-1.97136 0.0250419 0)
(-2.00509 0.0244479 -3.09154e-20)
(-2.0382 0.0238312 3.06178e-20)
(-2.07065 0.0231926 0)
(-2.10241 0.0225326 -3.00146e-20)
(-2.13344 0.0218521 0)
(-2.1637 0.0211518 0)
(-2.19314 0.0204326 2.90822e-20)
(-2.22174 0.0196953 0)
(-2.24944 0.0189407 -2.84364e-20)
(-2.27623 0.0181696 0)
(-2.30205 0.0173827 2.7767e-20)
(-2.32688 0.0165806 2.74222e-20)
(-2.35067 0.0157638 2.70702e-20)
(-2.3734 0.0149324 5.3421e-20)
(-2.39502 0.0140863 -5.26855e-20)
(-2.41551 0.013225 0)
(-2.43482 0.0123474 0)
(-2.45293 0.0114517 0)
(-2.46979 0.0105353 -4.95667e-20)
(-2.48536 0.00959454 -4.87394e-20)
(-2.49961 0.0086251 4.78919e-20)
(-2.51248 0.00762207 0)
(-2.52393 0.00657963 -4.61342e-20)
(-2.53388 0.00549205 -4.52232e-20)
(-2.54227 0.00435877 -4.42906e-20)
(-2.54901 0.0031953 0)
(-2.55402 0.00203854 0)
(-2.55713 0.000929464 0)
(-2.55841 -7.38802e-05 -4.03298e-20)
(-2.55833 -0.000930531 0)
(-2.55677 -0.0017529 0)
(-2.55377 -0.00256023 3.70829e-20)
(-2.54931 -0.00336141 0)
(-2.54338 -0.00415807 0)
(-2.53598 -0.00495038 3.35975e-20)
(-2.52709 -0.00573777 0)
(-2.5167 -0.00651946 0)
(-2.5048 -0.00729458 -2.98708e-20)
(-2.4914 -0.00806224 -2.85752e-20)
(-2.47648 -0.00882157 0)
(-2.46004 -0.00957169 2.59052e-20)
(-2.44208 -0.0103118 0)
(-2.42261 -0.0110409 -2.31319e-20)
(-2.40163 -0.0117584 0)
(-2.37915 -0.0124633 -2.02586e-20)
(-2.35516 -0.0131549 -1.87857e-20)
(-2.32969 -0.0138325 0)
(-2.30275 -0.0144952 0)
(-2.27434 -0.0151424 0)
(-2.24449 -0.0157734 0)
(-2.21321 -0.0163876 0)
(-2.18053 -0.0169842 0)
(-2.14645 -0.0175629 0)
(-2.11102 -0.018123 -6.22374e-21)
(-2.07424 -0.018664 4.56891e-21)
(-2.03615 -0.0191853 0)
(-1.99678 -0.0196866 0)
(-1.95616 -0.0201673 0)
(-1.91432 -0.0206271 0)
(-1.87128 -0.0210656 -7.82935e-21)
(-1.8271 -0.0214826 0)
(-1.78179 -0.0218778 1.47666e-20)
(-1.73541 -0.022251 -1.82572e-20)
(-1.68798 -0.0226021 0)
(-1.63955 -0.0229308 0)
(-1.59016 -0.0232372 0)
(-1.53985 -0.0235211 3.23023e-20)
(-1.48866 -0.0237828 3.58203e-20)
(-1.43663 -0.0240223 0)
(-1.3838 -0.0242396 4.28445e-20)
(-1.33023 -0.024435 4.6345e-20)
(-1.27595 -0.0246088 -4.9834e-20)
(-1.221 -0.0247613 0)
(-1.16544 -0.0248929 0)
(-1.1093 -0.025004 -6.0204e-20)
(-1.05262 -0.025095 0)
(-0.995457 -0.0251666 0)
(-0.93784 -0.0252194 0)
(-0.879815 -0.0252541 0)
(-0.821419 -0.0252712 7.70018e-20)
(-0.762692 -0.0252716 8.02654e-20)
(-0.70367 -0.0252562 0)
(-0.64439 -0.0252255 8.66775e-20)
(-0.584885 -0.0251806 0)
(-0.525188 -0.0251221 0)
(-0.465331 -0.0250508 9.59758e-20)
(-0.405343 -0.024967 0)
(-0.345254 -0.0248707 1.01938e-19)
(-0.285095 -0.0247615 0)
(-0.224897 -0.0246363 0)
(-0.164693 -0.0244878 1.10492e-19)
(-0.104515 -0.0243121 0)
(-0.0443854 -0.024102 1.15921e-19)
(0.0156123 -0.0237951 0)
(0.0754106 -0.0233953 0)
(0.135081 -0.0230006 0)
(0.194621 -0.0226307 -1.20763e-19)
(0.254044 -0.0222783 0)
(0.31336 -0.021935 1.22145e-19)
(0.372565 -0.021593 0)
(0.431631 -0.021243 0)
(0.4905 -0.020871 0)
(0.549053 -0.0204534 0)
(0.607096 -0.0199433 0)
(0.664095 -0.0192472 0)
(0.719615 -0.0181097 0)
(0.769398 -0.0158894 -2.5077e-19)
(0.81765 -0.0107846 0)
(0.817117 0.00701645 0)
(0.00480527 -0.0344461 1.03703e-19)
(0.00924888 -0.0298477 -9.83529e-20)
(0.00789649 -0.0158656 0)
(0.00368859 -0.0015043 5.83446e-20)
(-0.00302267 0.0118445 0)
(-0.0120817 0.0233959 2.70993e-20)
(-0.0234089 0.0327777 -5.26087e-20)
(-0.0368798 0.0400198 -5.11792e-20)
(-0.0523284 0.0454448 0)
(-0.0695415 0.0495059 -4.85246e-20)
(-0.0882897 0.0526226 -2.36566e-20)
(-0.108365 0.0551167 0)
(-0.129597 0.0572069 0)
(-0.151857 0.0590274 0)
(-0.175051 0.0606519 0)
(-0.199112 0.0621169 -2.10317e-20)
(-0.223994 0.0634377 0)
(-0.249667 0.0646203 4.03813e-20)
(-0.27611 0.0656697 0)
(-0.303319 0.0665965 0)
(-0.331302 0.0674227 -3.83817e-20)
(-0.360076 0.0681862 0)
(-0.389666 0.0689342 3.73423e-20)
(-0.420089 0.0696959 -1.84836e-20)
(-0.451362 0.0704423 1.82954e-20)
(-0.483534 0.0710856 -1.81326e-20)
(-0.516687 0.0715876 -1.7994e-20)
(-0.550785 0.072106 0)
(-0.585666 0.0728206 0)
(-0.62144 0.0734558 1.77024e-20)
(-0.658413 0.0737096 -1.75316e-20)
(-0.696209 0.0741276 0)
(-0.733648 0.0752328 0)
(-0.772872 0.0768879 1.75767e-20)
(-0.811041 0.0772481 0)
(-0.85078 0.0785781 0)
(-0.888226 0.0787226 -1.69738e-20)
(-0.92614 0.0794434 0)
(-0.962649 0.0800631 1.67292e-20)
(-1.00024 0.0811269 -3.33182e-20)
(-1.03883 0.0821197 0)
(-1.0779 0.0830857 0)
(-1.11613 0.0839665 -6.42239e-20)
(-1.15322 0.0843458 -6.351e-20)
(-1.18974 0.0843523 -6.28188e-20)
(-1.22592 0.084121 3.09968e-20)
(-1.26187 0.083729 -3.08247e-20)
(-1.29764 0.0832271 -9.13695e-20)
(-1.33324 0.0826471 6.02448e-20)
(-1.36869 0.0820088 2.98991e-20)
(-1.40397 0.0813239 0)
(-1.43909 0.0805988 -2.9321e-20)
(-1.47403 0.079837 2.88866e-20)
(-1.50878 0.0790394 0)
(-1.54332 0.0782057 0)
(-1.57764 0.0773351 0)
(-1.61171 0.0764258 -2.79828e-20)
(-1.64552 0.0754763 0)
(-1.67904 0.0744847 5.48064e-20)
(-1.71225 0.0734495 0)
(-1.74513 0.0723691 5.38306e-20)
(-1.77765 0.0712422 0)
(-1.80978 0.0700678 -5.28757e-20)
(-1.8415 0.0688452 0)
(-1.87278 0.0675738 5.1935e-20)
(-1.90359 0.0662533 -2.56615e-20)
(-1.9339 0.0648839 0)
(-1.96368 0.0634659 -5.05355e-20)
(-1.9929 0.0619997 -2.51031e-20)
(-2.02153 0.0604863 -2.48676e-20)
(-2.04955 0.0589265 0)
(-2.07691 0.0573216 -2.42644e-20)
(-2.1036 0.055673 -2.41519e-20)
(-2.12958 0.0539822 0)
(-2.15481 0.0522509 2.36633e-20)
(-2.17928 0.050481 -4.6716e-20)
(-2.20294 0.0486742 0)
(-2.22578 0.0468326 -2.29053e-20)
(-2.24776 0.0449581 0)
(-2.26885 0.0430527 6.70431e-20)
(-2.28903 0.0411184 0)
(-2.30826 0.039157 -6.54147e-20)
(-2.32652 0.0371703 -2.15512e-20)
(-2.34378 0.0351601 2.11916e-20)
(-2.36002 0.0331277 4.18075e-20)
(-2.3752 0.0310744 -4.1219e-20)
(-2.38931 0.0290012 0)
(-2.40231 0.0269085 0)
(-2.41419 0.0247967 0)
(-2.4249 0.0226652 1.16315e-19)
(-2.43444 0.0205129 3.81197e-20)
(-2.44279 0.0183381 -3.74292e-20)
(-2.44991 0.0161387 0)
(-2.45581 0.0139119 -3.59893e-20)
(-2.46047 0.0116536 3.52577e-20)
(-2.46392 0.00935902 3.44995e-20)
(-2.46619 0.00703451 0)
(-2.46738 0.00472238 0)
(-2.46758 0.00249422 0)
(-2.46677 0.000349831 3.12709e-20)
(-2.46459 -0.00169487 0)
(-2.46105 -0.00370101 -5.91792e-20)
(-2.45611 -0.00568275 -8.60497e-20)
(-2.44974 -0.00764788 5.55968e-20)
(-2.44192 -0.00959716 0)
(-2.43264 -0.0115295 2.60175e-20)
(-2.4219 -0.0134428 0)
(-2.40967 -0.0153348 4.79898e-20)
(-2.39595 -0.0172032 -2.31068e-20)
(-2.38074 -0.0190455 -2.21005e-20)
(-2.36403 -0.0208595 0)
(-2.34582 -0.0226429 -5.95765e-20)
(-2.32611 -0.0243937 3.76732e-20)
(-2.30491 -0.0261097 1.76062e-20)
(-2.28221 -0.0277889 0)
(-2.25802 -0.0294294 1.53771e-20)
(-2.23236 -0.0310293 4.30582e-20)
(-2.20523 -0.0325868 0)
(-2.17663 -0.0341002 2.42102e-20)
(-2.1466 -0.0355679 2.18646e-20)
(-2.11514 -0.0369883 1.94931e-20)
(-2.08226 -0.0383602 0)
(-2.048 -0.0396821 0)
(-2.01237 -0.0409529 0)
(-1.97539 -0.0421717 -5.10905e-21)
(-1.93709 -0.0433372 -3.42123e-21)
(-1.89749 -0.0444488 0)
(-1.85663 -0.0455054 -2.28709e-21)
(-1.81453 -0.0465063 2.3857e-22)
(-1.77123 -0.0474511 0)
(-1.72675 -0.0483391 5.82449e-21)
(-1.68113 -0.0491702 1.57587e-20)
(-1.63442 -0.0499442 -1.09576e-20)
(-1.58663 -0.050661 -1.24851e-20)
(-1.53782 -0.0513207 0)
(-1.48802 -0.0519233 0)
(-1.43727 -0.0524692 0)
(-1.38561 -0.0529587 -2.38259e-20)
(-1.33308 -0.0533925 2.52936e-20)
(-1.27973 -0.0537715 5.67915e-20)
(-1.2256 -0.0540962 -3.14952e-20)
(-1.17073 -0.0543677 3.29179e-20)
(-1.11517 -0.054587 3.65551e-20)
(-1.05895 -0.0547554 0)
(-1.00212 -0.0548744 0)
(-0.94473 -0.0549453 -4.29079e-20)
(-0.886812 -0.0549697 0)
(-0.828413 -0.0549494 0)
(-0.769573 -0.0548862 1.01529e-19)
(-0.710332 -0.0547821 0)
(-0.650729 -0.0546391 5.49546e-20)
(-0.590803 -0.0544593 -5.83919e-20)
(-0.530589 -0.0542449 0)
(-0.470124 -0.0539981 6.18703e-20)
(-0.409441 -0.053721 0)
(-0.348572 -0.0534158 0)
(-0.287547 -0.0530842 -6.95709e-20)
(-0.226396 -0.0527275 1.42352e-19)
(-0.165146 -0.0523461 -7.38018e-20)
(-0.103826 -0.0519387 0)
(-0.0424629 -0.0515034 0)
(0.0189176 -0.0510364 7.85207e-20)
(0.0802861 -0.0505365 0)
(0.141625 -0.050013 8.08195e-20)
(0.202911 -0.0494606 0)
(0.264139 -0.0488736 0)
(0.325326 -0.0482824 0)
(0.386462 -0.0477085 8.57419e-20)
(0.447542 -0.0471499 0)
(0.508561 -0.0465971 -8.74298e-20)
(0.569504 -0.0460364 0)
(0.630338 -0.0454488 0)
(0.690997 -0.0448034 1.78364e-19)
(0.751362 -0.0440472 -1.79631e-19)
(0.811231 -0.0430769 0)
(0.870147 -0.0416926 0)
(0.92764 -0.0393741 0)
(0.981089 -0.0351332 5.5361e-19)
(1.03303 -0.0255102 0)
(1.06281 -0.00240616 -3.76553e-19)
(0.000716892 -0.0401089 -5.44373e-23)
(-0.00316464 -0.0223585 1.26846e-19)
(-0.0107782 -0.00209744 0)
(-0.0199 0.0163507 -1.06487e-19)
(-0.0305717 0.0329718 0)
(-0.0426033 0.0476405 0)
(-0.0559779 0.060227 1.00036e-23)
(-0.0707666 0.0707295 4.51962e-20)
(-0.0870261 0.0793193 4.39834e-20)
(-0.10475 0.086294 4.28862e-20)
(-0.123873 0.0919948 0)
(-0.144294 0.0967396 0)
(-0.165907 0.100787 -3.99281e-20)
(-0.18861 0.104328 -7.81106e-20)
(-0.21232 0.107493 7.64735e-20)
(-0.236972 0.110368 0)
(-0.262516 0.113008 7.35188e-20)
(-0.288921 0.115454 -3.61114e-20)
(-0.316166 0.11774 0)
(-0.344241 0.119903 6.98421e-20)
(-0.373142 0.121985 3.44166e-20)
(-0.402864 0.124036 -6.78552e-20)
(-0.433395 0.126101 -3.35092e-20)
(-0.464707 0.128199 0)
(-0.496759 0.130307 6.54717e-20)
(-0.529524 0.132373 6.4798e-20)
(-0.56299 0.134376 0)
(-0.597068 0.136358 6.35587e-20)
(-0.631571 0.138319 0)
(-0.666394 0.140121 6.23874e-20)
(-0.70153 0.141677 3.09074e-20)
(-0.736796 0.143156 0)
(-0.771792 0.144511 0)
(-0.806625 0.145207 0)
(-0.841349 0.145645 0)
(-0.875747 0.145999 0)
(-0.909615 0.145931 0)
(-0.942953 0.145481 5.72443e-20)
(-0.975813 0.144195 -8.48553e-20)
(-1.00867 0.142316 0)
(-1.04182 0.140164 0)
(-1.07518 0.138465 0)
(-1.10828 0.137217 7.55796e-23)
(-1.14096 0.136093 5.32966e-20)
(-1.17335 0.134989 1.05261e-19)
(-1.20552 0.133862 -1.04042e-19)
(-1.23751 0.132696 -5.1385e-20)
(-1.26936 0.131486 5.08945e-20)
(-1.30109 0.130234 -8.984e-23)
(-1.33269 0.12894 4.96935e-20)
(-1.36418 0.127605 0)
(-1.39554 0.126228 4.86334e-20)
(-1.42678 0.124809 -9.59504e-23)
(-1.45787 0.123343 0)
(-1.4888 0.121829 0)
(-1.51957 0.120264 -4.66466e-20)
(-1.55015 0.118643 0)
(-1.58052 0.116965 0)
(-1.61067 0.115226 4.51487e-20)
(-1.64056 0.113423 8.95934e-20)
(-1.67019 0.111555 -4.44503e-20)
(-1.69953 0.10962 0)
(-1.72854 0.107615 4.35705e-20)
(-1.75721 0.105541 0)
(-1.78551 0.103396 4.25091e-20)
(-1.81342 0.10118 4.22749e-20)
(-1.8409 0.098894 -8.35028e-20)
(-1.86792 0.0965377 -4.12315e-20)
(-1.89446 0.0941124 0)
(-1.92049 0.0916192 8.09475e-20)
(-1.94597 0.0890598 0)
(-1.97089 0.086436 1.18941e-19)
(-1.9952 0.0837499 7.83749e-20)
(-2.01888 0.0810038 7.75077e-20)
(-2.04189 0.0782003 -7.66337e-20)
(-2.06422 0.0753421 1.13703e-19)
(-2.08582 0.0724319 0)
(-2.10667 0.0694727 0)
(-2.12673 0.0664674 -7.30463e-20)
(-2.14599 0.063419 -1.08244e-19)
(-2.1644 0.0603305 0)
(-2.18195 0.0572047 3.51695e-20)
(-2.19859 0.0540444 0)
(-2.21432 0.0508524 -1.02459e-19)
(-2.22909 0.0476311 -8.51047e-23)
(-2.24289 0.0443828 7.62437e-23)
(-2.25568 0.0411096 6.5211e-20)
(-2.26745 0.0378134 0)
(-2.27816 0.0344958 -6.30703e-20)
(-2.2878 0.0311586 -3.82835e-23)
(-2.29635 0.0278036 0)
(-2.30378 0.0244328 0)
(-2.31009 0.0210495 0)
(-2.31526 0.0176588 5.73315e-20)
(-2.31929 0.0142687 0)
(-2.32218 0.0108903 0)
(-2.32392 0.00753846 0)
(-2.32449 0.00423343 0)
(-2.32388 0.000998185 0)
(-2.32204 -0.00219848 4.96031e-20)
(-2.31886 -0.00539207 0)
(-2.31434 -0.00857274 4.6709e-20)
(-2.30846 -0.0117362 4.52586e-20)
(-2.30119 -0.0148787 -4.37822e-20)
(-2.29251 -0.0179966 0)
(-2.28242 -0.0210859 -4.07522e-20)
(-2.2709 -0.0241427 0)
(-2.25794 -0.0271629 -3.76203e-20)
(-2.24353 -0.0301426 3.60171e-20)
(-2.22768 -0.0330779 1.03546e-19)
(-2.21036 -0.035965 0)
(-2.1916 -0.0388005 9.3613e-20)
(-2.17137 -0.0415808 2.9812e-20)
(-2.14969 -0.0443027 0)
(-2.12655 -0.0469629 5.23004e-20)
(-2.10198 -0.0495584 4.87989e-20)
(-2.07596 -0.0520863 -6.76196e-20)
(-2.04851 -0.0545437 0)
(-2.01965 -0.0569278 -1.87441e-20)
(-1.98938 -0.0592361 -1.69092e-20)
(-1.95772 -0.0614662 -4.57883e-20)
(-1.9247 -0.063616 0)
(-1.89031 -0.0656835 0)
(-1.8546 -0.0676669 0)
(-1.81757 -0.0695645 -8.202e-21)
(-1.77926 -0.0713748 0)
(-1.73969 -0.0730966 0)
(-1.69889 -0.0747285 1.75343e-21)
(-1.65688 -0.0762695 -1.82712e-22)
(-1.61369 -0.0777186 0)
(-1.56937 -0.0790754 0)
(-1.52393 -0.0803395 -1.20317e-20)
(-1.47743 -0.0815107 0)
(-1.42988 -0.0825892 1.98236e-20)
(-1.38133 -0.0835751 2.29069e-20)
(-1.33182 -0.0844687 0)
(-1.28139 -0.0852705 0)
(-1.23007 -0.0859815 -3.45133e-20)
(-1.1779 -0.0866027 -8.36542e-22)
(-1.12494 -0.0871357 -8.4141e-22)
(-1.07121 -0.0875817 0)
(-1.01676 -0.0879423 -1.00426e-19)
(-0.961638 -0.0882194 0)
(-0.905877 -0.0884152 0)
(-0.849523 -0.0885323 0)
(-0.792617 -0.0885729 6.55394e-20)
(-0.7352 -0.0885396 0)
(-0.677314 -0.0884355 -1.43888e-19)
(-0.618997 -0.0882636 -7.63676e-20)
(-0.56029 -0.0880273 0)
(-0.501231 -0.0877296 -8.33882e-20)
(-0.441856 -0.0873744 0)
(-0.3822 -0.086965 0)
(-0.322299 -0.0865051 -2.79087e-19)
(-0.262184 -0.0859982 1.92118e-19)
(-0.201887 -0.0854477 0)
(-0.141436 -0.0848566 2.05039e-19)
(-0.0808605 -0.0842271 -1.06476e-19)
(-0.0201856 -0.0835616 0)
(0.0405634 -0.0828611 0)
(0.101363 -0.0821251 0)
(0.162191 -0.0813527 -3.46898e-19)
(0.22303 -0.0805457 0)
(0.283867 -0.0797131 -1.19936e-19)
(0.344708 -0.0788688 0)
(0.405568 -0.0780237 0)
(0.466439 -0.0771855 0)
(0.527302 -0.0763616 0)
(0.588144 -0.0755486 0)
(0.64895 -0.0747353 0)
(0.709701 -0.073903 -2.61585e-19)
(0.770358 -0.0730226 0)
(0.830859 -0.0720462 -1.34093e-19)
(0.891088 -0.0708912 4.0475e-19)
(0.950859 -0.0694045 0)
(1.00979 -0.0672951 0)
(1.06753 -0.0639248 -2.7642e-19)
(1.12233 -0.0580748 -2.79926e-19)
(1.17683 -0.046645 2.81941e-19)
(1.2191 -0.023081 2.86847e-19)
(-0.00412456 -0.0293396 -2.03945e-19)
(-0.0136559 -0.00339939 -1.84933e-19)
(-0.025272 0.0202133 -1.09325e-19)
(-0.0378891 0.0408904 -4.97822e-20)
(-0.0514756 0.0594294 0)
(-0.0658376 0.0760044 8.86758e-20)
(-0.0810155 0.0906275 -4.26446e-20)
(-0.0971313 0.103322 0)
(-0.114297 0.114196 -4.01654e-20)
(-0.132582 0.123443 0)
(-0.152006 0.131314 7.64353e-20)
(-0.172547 0.138066 0)
(-0.194158 0.143937 3.65398e-20)
(-0.216779 0.149123 7.15494e-20)
(-0.240349 0.153775 -7.01108e-20)
(-0.264811 0.158006 0)
(-0.290115 0.161896 -6.74942e-20)
(-0.316219 0.165507 0)
(-0.343085 0.168889 0)
(-0.370676 0.172082 -6.4165e-20)
(-0.398955 0.175126 0)
(-0.427874 0.178053 -1.20217e-24)
(-0.457374 0.180879 0)
(-0.487382 0.183599 0)
(-0.517816 0.186176 1.13067e-24)
(-0.548595 0.188555 -5.91183e-20)
(-0.579642 0.19069 -5.8395e-20)
(-0.610859 0.192561 -5.76819e-20)
(-0.642128 0.194142 0)
(-0.67335 0.195376 -1.12532e-19)
(-0.704468 0.196238 0)
(-0.735411 0.196772 -5.48392e-20)
(-0.766096 0.196993 0)
(-0.796505 0.196785 0)
(-0.826667 0.196267 5.27096e-20)
(-0.856569 0.195509 0)
(-0.886181 0.194462 -5.13211e-20)
(-0.915554 0.193166 -6.64099e-24)
(-0.944759 0.191511 9.99455e-20)
(-0.973927 0.18957 -9.8613e-20)
(-1.00315 0.187459 0)
(-1.03243 0.185428 0)
(-1.06165 0.183551 -4.73778e-20)
(-1.09077 0.181767 0)
(-1.11979 0.180032 -4.62478e-20)
(-1.14872 0.178316 4.5682e-20)
(-1.17757 0.176598 4.51315e-20)
(-1.20636 0.174865 0)
(-1.23508 0.173106 -4.4073e-20)
(-1.26374 0.171315 -4.35636e-20)
(-1.29233 0.169484 8.60484e-20)
(-1.32085 0.167608 -4.25803e-20)
(-1.34928 0.165681 -4.21051e-20)
(-1.37763 0.163697 0)
(-1.40586 0.161652 0)
(-1.43398 0.15954 4.07364e-20)