/*--------------------------------*- C++ -*----------------------------------*\
  =========                 |
  \\      /  F ield         | OpenFOAM: The Open Source CFD Toolbox
   \\    /   O peration     | Website:  https://openfoam.org
    \\  /    A nd           | Version:  11
     \\/     M anipulation  |
\*---------------------------------------------------------------------------*/
FoamFile
{
    format      ascii;
    class       volScalarField;
    location    "0.15";
    object      p;
}
// * * * * * * * * * * * * * * * * * * * * * * * * * * * * * * * * * * * * * //

dimensions      [0 2 -2 0 0 0 0];

internalField   nonuniform List<scalar> 
12225
(
-1.13161
-3.41458
-4.57698
-4.88507
-5.05321
-5.21278
-5.33717
-5.42535
-5.49465
-5.5553
-5.60906
-5.65571
-5.69554
-5.72776
-5.75115
-5.75503
-5.74909
-5.63537
-4.59911
-5.30119
-5.39136
-5.25621
-5.21603
-5.28317
-5.36374
-5.42936
-5.48609
-5.53914
-5.58828
-5.63231
-5.67091
-5.70313
-5.72846
-5.7396
-5.74973
-5.73046
-4.80386
-4.70088
-4.8576
-4.97964
-5.0869
-5.20907
-5.31719
-5.39965
-5.46659
-5.52612
-5.57988
-5.62762
-5.66946
-5.70506
-5.73483
-5.7555
-5.78172
-5.81213
-4.66658
-4.58842
-4.86443
-5.04307
-5.13742
-5.23443
-5.32938
-5.40674
-5.4711
-5.52902
-5.58195
-5.62953
-5.67185
-5.70903
-5.74209
-5.77104
-5.80795
-5.85927
-4.67356
-4.69078
-4.93081
-5.08063
-5.15657
-5.24116
-5.33062
-5.40652
-5.47027
-5.52774
-5.58058
-5.6286
-5.67202
-5.71141
-5.74824
-5.78425
-5.82836
-5.8876
-4.73526
-4.77769
-4.95542
-5.08608
-5.16398
-5.2464
-5.33258
-5.40727
-5.47069
-5.52795
-5.58086
-5.62943
-5.67405
-5.71558
-5.75573
-5.79688
-5.84536
-5.90681
-4.79502
-4.83451
-4.97086
-5.093
-5.1753
-5.25492
-5.33648
-5.4092
-5.4721
-5.5291
-5.58202
-5.6311
-5.67684
-5.72026
-5.7631
-5.80772
-5.8585
-5.91913
-4.84819
-4.88306
-4.99331
-5.10587
-5.18835
-5.26416
-5.34101
-5.41156
-5.47382
-5.53052
-5.58341
-5.63296
-5.67971
-5.72471
-5.76958
-5.81632
-5.86783
-5.92612
-4.89801
-4.92972
-5.02046
-5.1212
-5.2012
-5.27359
-5.34625
-5.4145
-5.4759
-5.53219
-5.58499
-5.63488
-5.68243
-5.72862
-5.77481
-5.82258
-5.87373
-5.9291
-4.94541
-4.97401
-5.04914
-5.13799
-5.2143
-5.28362
-5.35247
-5.41819
-5.47846
-5.5342
-5.58676
-5.63681
-5.68488
-5.73182
-5.7787
-5.82665
-5.87672
-5.92908
-4.99023
-5.01549
-5.07825
-5.15626
-5.22808
-5.2943
-5.35958
-5.42266
-5.48156
-5.53657
-5.58876
-5.63875
-5.68703
-5.73427
-5.78128
-5.82881
-5.87741
-5.92689
-5.02879
-5.05111
-5.10491
-5.17412
-5.24134
-5.30456
-5.36677
-5.42742
-5.48487
-5.53907
-5.59075
-5.64048
-5.68867
-5.73584
-5.78257
-5.82933
-5.87641
-5.92345
-5.06455
-5.08433
-5.13082
-5.19231
-5.25483
-5.315
-5.37434
-5.4326
-5.48852
-5.54178
-5.59283
-5.64212
-5.69
-5.73683
-5.78301
-5.8288
-5.87431
-5.91916
-5.10215
-5.11944
-5.1592
-5.21315
-5.27046
-5.32711
-5.38335
-5.43898
-5.49305
-5.54508
-5.59524
-5.64384
-5.69111
-5.73728
-5.78256
-5.82707
-5.8708
-5.9134
-5.14037
-5.15526
-5.18909
-5.23607
-5.28795
-5.3407
-5.39366
-5.44649
-5.49843
-5.54892
-5.5979
-5.64548
-5.6918
-5.73694
-5.78099
-5.82394
-5.86575
-5.90613
-5.17727
-5.19001
-5.21887
-5.25977
-5.30641
-5.35513
-5.40476
-5.45474
-5.50436
-5.55304
-5.60053
-5.64679
-5.69181
-5.7356
-5.77813
-5.81934
-5.85918
-5.89742
-5.20998
-5.22098
-5.24596
-5.28198
-5.32408
-5.36907
-5.41557
-5.46282
-5.51011
-5.55683
-5.60263
-5.64732
-5.69081
-5.733
-5.77384
-5.81324
-5.85114
-5.8874
-5.23414
-5.24395
-5.26634
-5.29904
-5.33791
-5.38007
-5.42409
-5.46911
-5.51439
-5.55931
-5.60345
-5.64654
-5.68843
-5.729
-5.76814
-5.80579
-5.8419
-5.87639
-5.2428
-5.25216
-5.27365
-5.30522
-5.34296
-5.38402
-5.42691
-5.47078
-5.51491
-5.55867
-5.6016
-5.64344
-5.684
-5.72317
-5.76087
-5.79705
-5.83167
-5.86472
-5.22804
-5.23811
-5.26113
-5.29482
-5.33468
-5.37736
-5.42133
-5.46591
-5.51047
-5.55438
-5.59719
-5.63869
-5.67875
-5.71728
-5.75424
-5.78961
-5.82337
-5.85555
-5.20199
-5.2132
-5.23902
-5.27681
-5.32065
-5.36631
-5.41247
-5.45881
-5.50469
-5.54945
-5.59271
-5.63439
-5.67444
-5.71281
-5.74949
-5.78448
-5.81783
-5.84958
-5.16715
-5.17955
-5.20963
-5.25417
-5.30375
-5.35299
-5.40185
-5.45069
-5.49857
-5.54459
-5.5886
-5.63071
-5.67097
-5.70938
-5.74596
-5.78077
-5.81387
-5.84535
-5.12662
-5.13924
-5.17465
-5.22931
-5.28652
-5.33964
-5.39134
-5.44288
-5.49283
-5.54019
-5.58508
-5.62778
-5.66839
-5.70695
-5.74353
-5.77825
-5.81123
-5.84256
-5.08283
-5.09442
-5.13685
-5.20354
-5.26833
-5.32608
-5.38212
-5.43695
-5.48863
-5.53689
-5.58244
-5.62564
-5.66654
-5.70518
-5.74175
-5.7764
-5.80926
-5.84045
-5.03601
-5.04379
-5.10488
-5.18475
-5.24997
-5.30974
-5.37177
-5.4315
-5.48543
-5.53466
-5.5809
-5.62459
-5.66571
-5.70439
-5.74089
-5.77543
-5.80819
-5.83931
-4.98809
-4.96446
-5.0753
-5.18431
-5.24497
-5.29917
-5.36272
-5.42522
-5.48066
-5.53084
-5.5779
-5.62218
-5.66363
-5.70246
-5.73901
-5.77355
-5.80627
-5.83733
-4.97879
-4.83449
-4.99357
-5.15983
-5.2444
-5.30552
-5.37043
-5.43171
-5.4856
-5.5349
-5.58147
-5.62532
-5.66631
-5.70469
-5.74083
-5.77497
-5.80738
-5.83824
-5.12421
-4.84042
-4.8752
-5.00571
-5.12537
-5.23246
-5.32663
-5.40251
-5.46488
-5.52025
-5.57114
-5.61788
-5.66083
-5.70059
-5.73768
-5.7725
-5.80554
-5.83745
-5.06101
-5.56072
-5.57088
-5.41168
-5.33077
-5.35506
-5.40929
-5.45881
-5.50403
-5.54872
-5.59249
-5.63407
-5.67308
-5.70972
-5.74419
-5.77659
-5.80718
-5.83781
-1.72233
-3.59291
-4.66422
-4.95733
-5.09223
-5.22906
-5.34106
-5.42116
-5.48423
-5.54037
-5.5918
-5.63861
-5.68135
-5.72077
-5.75729
-5.79091
-5.82129
-5.84665
-6.7399
-6.73985
-6.74023
-6.74102
-6.74211
-6.74347
-6.74511
-6.74706
-6.74933
-6.75195
-6.75494
-6.75835
-6.76221
-6.76657
-6.77147
-6.77694
-6.78303
-6.78978
-6.79721
-6.80537
-6.8143
-6.82403
-6.83461
-6.84606
-6.85843
-6.87174
-6.88594
-6.90099
-6.9171
-6.93479
-6.95409
-6.97439
-6.9965
-7.02216
-7.04951
-7.06399
-7.07426
-7.10601
-7.1338
-7.16341
-7.19167
-7.20651
-7.23056
-7.25697
-7.28429
-7.31257
-7.34154
-7.37106
-7.401
-7.43126
-7.46174
-7.49236
-7.52302
-7.55363
-7.5841
-7.61434
-7.64423
-7.67368
-7.70258
-7.7308
-7.75823
-7.78473
-7.81017
-7.8344
-7.85729
-7.87868
-7.89841
-7.91632
-7.93224
-7.946
-7.95742
-7.96632
-7.97253
-7.97586
-7.97612
-7.97313
-7.9667
-7.95663
-7.94275
-7.92487
-7.9028
-7.87637
-7.84538
-7.80967
-7.76906
-7.72338
-7.67248
-7.61619
-7.55435
-7.48683
-7.41348
-7.33416
-7.24876
-7.15716
-7.05926
-6.95498
-6.84433
-6.72731
-6.60374
-6.47355
-6.3362
-6.19191
-6.04073
-5.88269
-5.71782
-5.54614
-5.36769
-5.1825
-4.99065
-4.79221
-4.58728
-4.37597
-4.15841
-3.93474
-3.70512
-3.46973
-3.22874
-2.98236
-2.73082
-2.47432
-2.21313
-1.94748
-1.67765
-1.4039
-1.12652
-0.845807
-0.562049
-0.275554
0.0133658
0.304397
0.59722
0.891514
1.18696
1.48323
1.78001
2.07699
2.37383
2.67024
2.96591
3.26053
3.55383
3.8455
4.13528
4.4229
4.70811
4.99067
5.27033
5.54688
5.82011
6.08983
6.35585
6.618
6.87613
7.13008
7.37974
7.62497
7.86567
8.10174
8.3331
8.55967
8.78139
8.99822
9.21013
9.41709
9.61907
9.81593
10.0075
10.1938
10.3748
10.5505
10.721
10.8862
11.0462
11.201
11.3507
11.4957
11.6369
11.7758
11.9219
12.076
-6.73823
-6.73857
-6.73908
-6.73972
-6.74031
-6.74088
-6.74159
-6.74261
-6.74401
-6.74583
-6.74812
-6.75087
-6.75411
-6.75787
-6.76218
-6.76706
-6.77255
-6.77869
-6.7855
-6.79302
-6.80128
-6.81029
-6.82009
-6.83066
-6.84198
-6.85403
-6.86682
-6.88055
-6.89539
-6.91104
-6.927
-6.94372
-6.96138
-6.9783
-6.99146
-7.01392
-7.04818
-7.06632
-7.08817
-7.11081
-7.1337
-7.17133
-7.20362
-7.23284
-7.26186
-7.291
-7.3204
-7.35007
-7.38003
-7.41021
-7.44057
-7.47104
-7.50154
-7.532
-7.56233
-7.59243
-7.62222
-7.65158
-7.68041
-7.7086
-7.73601
-7.76254
-7.78803
-7.81236
-7.83537
-7.85691
-7.87684
-7.89498
-7.91117
-7.92524
-7.93701
-7.94631
-7.95295
-7.95676
-7.95754
-7.95511
-7.94928
-7.93987
-7.92668
-7.90954
-7.88826
-7.86265
-7.83254
-7.79775
-7.75812
-7.71346
-7.66363
-7.60846
-7.5478
-7.48151
-7.40945
-7.33149
-7.2475
-7.15736
-7.06097
-6.9582
-6.84896
-6.73313
-6.6105
-6.48079
-6.34461
-6.20176
-6.05216
-5.89575
-5.73253
-5.56252
-5.38574
-5.20224
-5.01207
-4.81532
-4.61207
-4.40243
-4.18653
-3.9645
-3.73651
-3.50271
-3.2633
-3.01847
-2.76844
-2.51342
-2.25367
-1.98942
-1.72094
-1.4485
-1.17237
-0.892862
-0.610253
-0.324852
-0.0369661
0.25309
0.545001
0.838446
1.13311
1.42866
1.72478
2.02117
2.31749
2.61344
2.90872
3.20302
3.49605
3.78752
4.07717
4.36472
4.64991
4.93251
5.21227
5.48897
5.76241
6.03237
6.29869
6.56118
6.81969
7.07406
7.32416
7.56988
7.81109
8.0477
8.27962
8.50678
8.72912
8.94658
9.15913
9.36675
9.56938
9.76689
9.95914
10.1461
10.3278
10.5043
10.6755
10.8415
11.0022
11.1579
11.3087
11.4549
11.598
11.739
11.8884
12.0362
-6.73399
-6.73534
-6.73675
-6.73794
-6.73875
-6.73934
-6.73996
-6.7408
-6.74198
-6.74356
-6.7456
-6.74812
-6.75116
-6.75473
-6.75886
-6.76359
-6.76894
-6.77494
-6.78162
-6.78902
-6.79715
-6.80604
-6.81571
-6.82617
-6.83743
-6.8495
-6.86239
-6.8762
-6.89107
-6.90693
-6.92353
-6.94082
-6.9589
-6.9775
-6.99646
-7.018
-7.04301
-7.06648
-7.08931
-7.11269
-7.13618
-7.16346
-7.19134
-7.21929
-7.2476
-7.27625
-7.30521
-7.33445
-7.36395
-7.39367
-7.42355
-7.45354
-7.48357
-7.51357
-7.54344
-7.57312
-7.6025
-7.63148
-7.65995
-7.68781
-7.71494
-7.7412
-7.76647
-7.79062
-7.81348
-7.83493
-7.8548
-7.87292
-7.88915
-7.9033
-7.91521
-7.9247
-7.93158
-7.93568
-7.93682
-7.93479
-7.92943
-7.92055
-7.90795
-7.89145
-7.87087
-7.84603
-7.81675
-7.78285
-7.74416
-7.70051
-7.65175
-7.5977
-7.53823
-7.47319
-7.40242
-7.32581
-7.24322
-7.15453
-7.05962
-6.9584
-6.85071
-6.7364
-6.61554
-6.48787
-6.35354
-6.21252
-6.06477
-5.91024
-5.74893
-5.58084
-5.406
-5.22446
-5.03625
-4.84147
-4.64018
-4.43251
-4.21856
-3.99848
-3.77241
-3.54053
-3.303
-3.06002
-2.81181
-2.55858
-2.30058
-2.03803
-1.77121
-1.50037
-1.22581
-0.94779
-0.666618
-0.382591
-0.0960147
0.1928
0.483538
0.775883
1.06951
1.36411
1.65936
1.95494
2.25054
2.54585
2.84056
3.13437
3.42698
3.71812
4.00751
4.29487
4.57995
4.8625
5.14228
5.41907
5.69266
5.96284
6.22943
6.49225
6.75114
7.00594
7.25652
7.50275
7.74452
7.98172
8.21427
8.44207
8.66507
8.8832
9.09642
9.30468
9.50792
9.7061
9.89912
10.0869
10.2695
10.4469
10.619
10.7859
10.9477
11.1044
11.2564
11.4042
11.5492
11.6919
11.8437
11.9809
-6.72764
-6.73002
-6.73277
-6.73502
-6.73655
-6.73764
-6.7386
-6.73964
-6.74092
-6.74254
-6.74457
-6.74705
-6.75004
-6.75356
-6.75765
-6.76232
-6.76762
-6.77357
-6.78018
-6.7875
-6.79555
-6.80434
-6.81389
-6.82423
-6.83536
-6.84729
-6.86006
-6.87371
-6.88829
-6.90381
-6.92018
-6.93738
-6.95538
-6.9742
-6.99397
-7.01506
-7.03747
-7.06062
-7.08415
-7.10829
-7.13307
-7.15891
-7.18553
-7.2127
-7.24036
-7.26843
-7.29688
-7.32566
-7.35471
-7.38401
-7.41348
-7.44308
-7.47273
-7.50236
-7.5319
-7.56126
-7.59034
-7.61906
-7.6473
-7.67495
-7.70189
-7.72801
-7.75317
-7.77723
-7.80005
-7.82148
-7.84137
-7.85957
-7.87589
-7.89019
-7.90227
-7.91198
-7.91912
-7.92352
-7.925
-7.92336
-7.91843
-7.91001
-7.89793
-7.88199
-7.86201
-7.83782
-7.80922
-7.77606
-7.73814
-7.69532
-7.64742
-7.59428
-7.53576
-7.47169
-7.40195
-7.3264
-7.2449
-7.15732
-7.06355
-6.96347
-6.85697
-6.74393
-6.62431
-6.49807
-6.36518
-6.22559
-6.07929
-5.92622
-5.7664
-5.59981
-5.42648
-5.24645
-5.05977
-4.8665
-4.66675
-4.46059
-4.24816
-4.02959
-3.80501
-3.5746
-3.33854
-3.097
-2.85021
-2.59837
-2.34172
-2.0805
-1.81497
-1.54539
-1.27204
-0.99519
-0.715143
-0.432194
-0.146646
0.141192
0.431006
0.72248
1.0153
1.30914
1.60369
1.89863
2.19365
2.48844
2.78268
3.07609
3.36837
3.65923
3.94839
4.23558
4.52055
4.80305
5.08284
5.35969
5.63338
5.90372
6.17051
6.43357
6.69275
6.94788
7.19882
7.44545
7.68765
7.92531
8.15833
8.38664
8.61017
8.82885
9.04263
9.25144
9.45518
9.65383
9.84739
10.0358
10.219
10.397
10.5697
10.7373
10.8998
11.0573
11.2102
11.3589
11.5048
11.6475
11.7981
11.9227
-6.72079
-6.72427
-6.72844
-6.73191
-6.73435
-6.73615
-6.73767
-6.73914
-6.74075
-6.74262
-6.74485
-6.7475
-6.75064
-6.75429
-6.75849
-6.76328
-6.76868
-6.77472
-6.78144
-6.78884
-6.79697
-6.80584
-6.81548
-6.82589
-6.8371
-6.84913
-6.86199
-6.87572
-6.89034
-6.90585
-6.92223
-6.93946
-6.95755
-6.9765
-6.99636
-7.01718
-7.03896
-7.06151
-7.08478
-7.10878
-7.13353
-7.15905
-7.18521
-7.21192
-7.23911
-7.26674
-7.29478
-7.32316
-7.35186
-7.38081
-7.40996
-7.43926
-7.46863
-7.49801
-7.52731
-7.55645
-7.58534
-7.61388
-7.64197
-7.6695
-7.69635
-7.7224
-7.74751
-7.77155
-7.79437
-7.81584
-7.83579
-7.85407
-7.87051
-7.88494
-7.8972
-7.9071
-7.91447
-7.91912
-7.92088
-7.91955
-7.91495
-7.9069
-7.89521
-7.87969
-7.86016
-7.83645
-7.80836
-7.77573
-7.73838
-7.69615
-7.64887
-7.59638
-7.53853
-7.47517
-7.40616
-7.33136
-7.25063
-7.16386
-7.07091
-6.97168
-6.86606
-6.75396
-6.63531
-6.51006
-6.37817
-6.2396
-6.0943
-5.94225
-5.78345
-5.61789
-5.44559
-5.26659
-5.08095
-4.88872
-4.69
-4.48488
-4.27348
-4.05593
-3.83237
-3.60296
-3.36788
-3.12733
-2.88149
-2.63059
-2.37487
-2.11455
-1.84989
-1.58117
-1.30864
-1.03259
-0.753308
-0.471094
-0.186249
0.10092
0.3901
0.680977
0.973234
1.26655
1.56062
1.85512
2.14973
2.44415
2.73808
3.0312
3.32323
3.61389
3.90289
4.18996
4.47485
4.7573
5.03708
5.31396
5.58772
5.85815
6.12508
6.38831
6.64767
6.90303
7.15422
7.40112
7.64361
7.88159
8.11496
8.34364
8.56754
8.78661
9.00076
9.20992
9.414
9.61297
9.80683
9.99556
10.1791
10.3575
10.5306
10.6986
10.8615
11.0195
11.1728
11.3218
11.4676
11.6091
11.7567
11.8695
-6.71493
-6.71933
-6.72476
-6.72937
-6.73275
-6.73532
-6.73749
-6.73952
-6.74161
-6.74388
-6.74647
-6.74944
-6.75287
-6.75679
-6.76126
-6.7663
-6.77194
-6.77822
-6.78516
-6.7928
-6.80115
-6.81024
-6.82009
-6.83071
-6.84213
-6.85437
-6.86743
-6.88134
-6.89611
-6.91174
-6.92821
-6.94552
-6.96368
-6.98267
-7.00251
-7.02321
-7.04472
-7.06699
-7.08998
-7.11368
-7.13808
-7.16318
-7.1889
-7.21518
-7.24199
-7.26926
-7.29696
-7.32503
-7.35344
-7.38214
-7.41105
-7.44013
-7.46931
-7.49851
-7.52766
-7.55667
-7.58545
-7.6139
-7.64193
-7.66941
-7.69623
-7.72227
-7.7474
-7.77147
-7.79435
-7.8159
-7.83594
-7.85433
-7.8709
-7.88548
-7.8979
-7.90799
-7.91556
-7.92043
-7.92242
-7.92135
-7.91702
-7.90926
-7.89787
-7.88267
-7.86348
-7.84012
-7.8124
-7.78016
-7.74322
-7.70141
-7.65457
-7.60254
-7.54516
-7.4823
-7.4138
-7.33953
-7.25935
-7.17314
-7.08078
-6.98215
-6.87717
-6.76573
-6.64776
-6.5232
-6.392
-6.25411
-6.10949
-5.95813
-5.8
-5.63513
-5.46352
-5.28521
-5.10025
-4.90871
-4.71067
-4.50623
-4.29551
-4.07863
-3.85574
-3.627
-3.39258
-3.15267
-2.90747
-2.6572
-2.40209
-2.14237
-1.87831
-1.61015
-1.33818
-1.06267
-0.783912
-0.5022
-0.217836
0.0688721
0.357614
0.648075
0.93994
1.23289
1.52662
1.8208
2.11512
2.40927
2.70296
2.99587
3.28772
3.57821
3.86708
4.15405
4.43886
4.72126
5.00101
5.27789
5.55167
5.82216
6.08915
6.35248
6.61196
6.86745
7.11879
7.36588
7.60857
7.84676
8.08036
8.30928
8.53342
8.75273
8.96712
9.17651
9.38081
9.57999
9.77407
9.96302
10.1468
10.3254
10.4988
10.6671
10.8302
10.9884
11.1418
11.2907
11.4359
11.5757
11.72
11.8222
-6.71101
-6.71611
-6.72252
-6.72807
-6.73228
-6.73558
-6.73841
-6.74102
-6.74362
-6.74637
-6.74939
-6.75276
-6.75655
-6.76083
-6.76564
-6.771
-6.77697
-6.78356
-6.79081
-6.79874
-6.80737
-6.81673
-6.82684
-6.83772
-6.84938
-6.86183
-6.87509
-6.88917
-6.90407
-6.91979
-6.93633
-6.95368
-6.97185
-6.99081
-7.01058
-7.03115
-7.05248
-7.07455
-7.09733
-7.1208
-7.14495
-7.16974
-7.19516
-7.22114
-7.24766
-7.27467
-7.30213
-7.32999
-7.35821
-7.38673
-7.4155
-7.44445
-7.47352
-7.50264
-7.53172
-7.56068
-7.58944
-7.61789
-7.64592
-7.67343
-7.70029
-7.72639
-7.75159
-7.77575
-7.79874
-7.82039
-7.84056
-7.85909
-7.8758
-7.89054
-7.90313
-7.91339
-7.92114
-7.9262
-7.92839
-7.92752
-7.92341
-7.91586
-7.9047
-7.88973
-7.87079
-7.84767
-7.82021
-7.78823
-7.75156
-7.71004
-7.66349
-7.61176
-7.5547
-7.49216
-7.424
-7.35007
-7.27026
-7.18442
-7.09245
-6.99422
-6.88966
-6.77865
-6.66113
-6.53701
-6.40624
-6.26878
-6.12459
-5.97365
-5.81595
-5.6515
-5.48031
-5.30242
-5.11789
-4.92677
-4.72916
-4.52514
-4.31484
-4.09839
-3.87592
-3.6476
-3.41359
-3.1741
-2.92931
-2.67944
-2.42473
-2.16541
-1.90173
-1.63396
-1.36236
-1.08722
-0.808815
-0.527448
-0.243418
0.0429682
0.3314
0.621563
0.913143
1.20582
1.49929
1.79323
2.08733
2.38128
2.67477
2.9675
3.25919
3.54955
3.83829
4.12515
4.40987
4.69221
4.97191
5.24875
5.52251
5.793
6.06001
6.32336
6.5829
6.83846
7.08989
7.33707
7.57988
7.8182
8.05193
8.28099
8.50528
8.72474
8.93927
9.14881
9.35326
9.5526
9.74683
9.93593
10.1199
10.2986
10.4722
10.6406
10.8039
10.9621
11.1154
11.2639
11.4083
11.546
11.6874
11.7803
-6.70956
-6.71512
-6.72219
-6.72844
-6.73331
-6.73723
-6.74064
-6.74379
-6.74689
-6.75011
-6.75356
-6.75734
-6.76153
-6.76618
-6.77135
-6.77706
-6.78337
-6.79029
-6.79785
-6.80608
-6.81501
-6.82464
-6.83501
-6.84612
-6.85799
-6.87064
-6.88406
-6.89828
-6.91328
-6.92907
-6.94566
-6.96302
-6.98117
-7.00009
-7.01978
-7.04023
-7.06143
-7.08334
-7.10596
-7.12926
-7.15322
-7.17783
-7.20305
-7.22885
-7.25519
-7.28204
-7.30936
-7.3371
-7.36522
-7.39366
-7.42237
-7.45128
-7.48033
-7.50945
-7.53855
-7.56755
-7.59636
-7.62487
-7.65298
-7.68058
-7.70755
-7.73376
-7.75908
-7.78338
-7.8065
-7.82829
-7.84861
-7.86729
-7.88416
-7.89905
-7.9118
-7.92221
-7.93012
-7.93534
-7.93769
-7.93697
-7.93301
-7.92562
-7.91461
-7.8998
-7.881
-7.85804
-7.83073
-7.79891
-7.7624
-7.72103
-7.67464
-7.62308
-7.5662
-7.50384
-7.43586
-7.36213
-7.28252
-7.1969
-7.10515
-7.00716
-6.90283
-6.79206
-6.67478
-6.55089
-6.42036
-6.28312
-6.13916
-5.98843
-5.83095
-5.66672
-5.49574
-5.31808
-5.13376
-4.94287
-4.74548
-4.54169
-4.33162
-4.1154
-3.89316
-3.66508
-3.43131
-3.19206
-2.94751
-2.69789
-2.44342
-2.18434
-1.92091
-1.65338
-1.38202
-1.10712
-0.828956
-0.547824
-0.264025
0.0221331
0.310341
0.600287
0.891654
1.18413
1.4774
1.77114
2.06506
2.35883
2.65215
2.94473
3.23627
3.52649
3.81511
4.10186
4.38648
4.66871
4.94833
5.2251
5.49881
5.76925
6.03623
6.29958
6.55911
6.81468
7.06613
7.31335
7.5562
7.79457
8.02837
8.2575
8.48187
8.70141
8.91602
9.12564
9.33019
9.52964
9.72397
9.91317
10.0972
10.2761
10.4497
10.6182
10.7815
10.9396
11.0927
11.2406
11.3839
11.5195
11.6582
11.7431
-6.71078
-6.71655
-6.72398
-6.73065
-6.73598
-6.74038
-6.74426
-6.74786
-6.7514
-6.75503
-6.75888
-6.76303
-6.76758
-6.77258
-6.77807
-6.78411
-6.79072
-6.79793
-6.80577
-6.81427
-6.82344
-6.83331
-6.84389
-6.8552
-6.86724
-6.88003
-6.89358
-6.90788
-6.92296
-6.9388
-6.9554
-6.97276
-6.99089
-7.00977
-7.02939
-7.04976
-7.07086
-7.09267
-7.11518
-7.13837
-7.16222
-7.18672
-7.21183
-7.23754
-7.2638
-7.29059
-7.31786
-7.34558
-7.37369
-7.40214
-7.43087
-7.45983
-7.48895
-7.51814
-7.54733
-7.57644
-7.60536
-7.634
-7.66225
-7.68999
-7.71711
-7.74347
-7.76895
-7.7934
-7.81668
-7.83864
-7.85911
-7.87794
-7.89495
-7.90999
-7.92287
-7.93342
-7.94145
-7.94678
-7.94923
-7.94862
-7.94475
-7.93744
-7.9265
-7.91176
-7.89303
-7.87013
-7.84288
-7.81111
-7.77464
-7.73332
-7.68699
-7.63548
-7.57864
-7.51634
-7.44843
-7.37476
-7.29522
-7.20968
-7.11801
-7.02011
-6.91586
-6.80518
-6.68796
-6.56415
-6.43368
-6.29651
-6.1526
-6.00193
-5.84451
-5.68033
-5.50941
-5.33181
-5.14756
-4.95673
-4.75942
-4.55571
-4.34573
-4.1296
-3.90746
-3.67948
-3.44583
-3.20669
-2.96226
-2.71277
-2.45844
-2.1995
-1.93621
-1.66883
-1.39763
-1.12288
-0.84488
-0.563912
-0.280279
0.00571166
0.293751
0.583526
0.874723
1.16703
1.46013
1.75371
2.04746
2.34107
2.63423
2.92666
3.21804
3.50811
3.79659
4.0832
4.36769
4.64981
4.92932
5.20599
5.47961
5.74997
6.01688
6.28016
6.53964
6.79516
7.04659
7.29378
7.53662
7.775
8.0088
8.23795
8.46234
8.6819
8.89655
9.10621
9.31082
9.51033
9.70472
9.89398
10.0781
10.257
10.4307
10.5991
10.7623
10.9203
11.073
11.2202
11.3623
11.4958
11.632
11.71
-6.71457
-6.72034
-6.72783
-6.73468
-6.74027
-6.74498
-6.74919
-6.75314
-6.75701
-6.76097
-6.76513
-6.76958
-6.77442
-6.77969
-6.78545
-6.79173
-6.79858
-6.80602
-6.81407
-6.82277
-6.83213
-6.84216
-6.85289
-6.86432
-6.87648
-6.88936
-6.90298
-6.91734
-6.93245
-6.94831
-6.96492
-6.98227
-7.00037
-7.01922
-7.03881
-7.05913
-7.08017
-7.10193
-7.12439
-7.14754
-7.17135
-7.19582
-7.22092
-7.24662
-7.27289
-7.2997
-7.32701
-7.35478
-7.38296
-7.4115
-7.44034
-7.46942
-7.49866
-7.528
-7.55734
-7.5866
-7.61569
-7.6445
-7.67293
-7.70084
-7.72814
-7.75468
-7.78032
-7.80494
-7.82838
-7.85048
-7.87109
-7.89005
-7.90719
-7.92233
-7.93531
-7.94594
-7.95404
-7.95943
-7.96192
-7.96133
-7.95748
-7.95018
-7.93924
-7.92448
-7.90573
-7.88279
-7.8555
-7.82369
-7.78718
-7.7458
-7.69941
-7.64785
-7.59096
-7.52861
-7.46065
-7.38694
-7.30736
-7.22178
-7.13008
-7.03214
-6.92785
-6.81711
-6.69984
-6.57596
-6.44542
-6.30818
-6.16421
-6.01347
-5.85598
-5.69173
-5.52076
-5.3431
-5.1588
-4.96794
-4.7706
-4.56687
-4.35687
-4.14074
-3.91861
-3.69065
-3.45702
-3.21792
-2.97354
-2.72411
-2.46984
-2.21098
-1.94778
-1.68049
-1.40939
-1.13476
-0.856879
-0.576038
-0.29254
-0.00669094
0.281201
0.570825
0.861867
1.15401
1.44694
1.74035
2.03393
2.32737
2.62036
2.91262
3.20384
3.49374
3.78205
4.0685
4.35284
4.6348
4.91417
5.1907
5.46418
5.73442
6.00121
6.26438
6.52376
6.77919
7.03054
7.27766
7.52044
7.75876
7.99253
8.22164
8.44601
8.66555
8.88019
9.08986
9.29448
9.49402
9.68844
9.87773
10.0618
10.2408
10.4144
10.5828
10.7459
10.9036
11.0558
11.2022
11.343
11.4745
11.6085
11.6806
-6.72064
-6.72623
-6.73354
-6.74033
-6.74599
-6.75085
-6.75524
-6.7594
-6.76349
-6.76766
-6.77203
-6.77669
-6.78171
-6.78716
-6.79309
-6.79953
-6.80652
-6.8141
-6.82228
-6.83109
-6.84054
-6.85067
-6.86147
-6.87298
-6.88518
-6.89811
-6.91176
-6.92614
-6.94126
-6.95712
-6.97372
-6.99106
-7.00915
-7.02799
-7.04756
-7.06787
-7.08891
-7.11067
-7.13314
-7.1563
-7.18015
-7.20466
-7.22982
-7.25558
-7.28194
-7.30885
-7.33627
-7.36416
-7.39248
-7.42117
-7.45017
-7.47942
-7.50884
-7.53836
-7.5679
-7.59735
-7.62663
-7.65563
-7.68424
-7.71234
-7.7398
-7.76651
-7.79231
-7.81707
-7.84063
-7.86285
-7.88357
-7.90261
-7.91981
-7.935
-7.94801
-7.95865
-7.96675
-7.97212
-7.97457
-7.97393
-7.97001
-7.96263
-7.95159
-7.93673
-7.91786
-7.8948
-7.86738
-7.83543
-7.79877
-7.75726
-7.71072
-7.65902
-7.60199
-7.53949
-7.47139
-7.39756
-7.31785
-7.23215
-7.14031
-7.04222
-6.93778
-6.82687
-6.70944
-6.58539
-6.45469
-6.31728
-6.17314
-6.02225
-5.8646
-5.70021
-5.5291
-5.35131
-5.16689
-4.97592
-4.77848
-4.57467
-4.3646
-4.14841
-3.92624
-3.69825
-3.46461
-3.2255
-2.98114
-2.73173
-2.4775
-2.21869
-1.95556
-1.68835
-1.41734
-1.14281
-0.865039
-0.584326
-0.300969
-0.0152685
0.272466
0.561925
0.852795
1.14476
1.43751
1.73073
2.02411
2.31735
2.61014
2.90219
3.19321
3.48291
3.77102
4.05727
4.3414
4.62317
4.90234
5.17869
5.45199
5.72205
5.98868
6.25169
6.51092
6.76622
7.01743
7.26444
7.50711
7.74534
7.97902
8.20805
8.43236
8.65185
8.86645
9.07608
9.28069
9.48022
9.67465
9.86394
10.048
10.2269
10.4005
10.5688
10.7317
10.889
11.0407
11.1863
11.3258
11.4553
11.5872
11.6544
-6.72858
-6.73385
-6.74078
-6.74732
-6.75287
-6.75772
-6.76215
-6.76638
-6.77055
-6.77481
-6.77926
-6.784
-6.7891
-6.79462
-6.8006
-6.8071
-6.81413
-6.82174
-6.82995
-6.83879
-6.84826
-6.8584
-6.86922
-6.88072
-6.89293
-6.90585
-6.91949
-6.93386
-6.94897
-6.96482
-6.98142
-6.99876
-7.01686
-7.0357
-7.05529
-7.07563
-7.09671
-7.11852
-7.14105
-7.16429
-7.18823
-7.21285
-7.23811
-7.26401
-7.29051
-7.31757
-7.34516
-7.37323
-7.40173
-7.43061
-7.4598
-7.48924
-7.51886
-7.54858
-7.5783
-7.60795
-7.63741
-7.66658
-7.69535
-7.7236
-7.7512
-7.77802
-7.80392
-7.82877
-7.8524
-7.87466
-7.8954
-7.91444
-7.93163
-7.94678
-7.95973
-7.97029
-7.97829
-7.98354
-7.98586
-7.98506
-7.98098
-7.97341
-7.96219
-7.94713
-7.92805
-7.90478
-7.87714
-7.84496
-7.80809
-7.76635
-7.7196
-7.66767
-7.61043
-7.54773
-7.47942
-7.40539
-7.32549
-7.23958
-7.14752
-7.0492
-6.94451
-6.83336
-6.71568
-6.5914
-6.46046
-6.32283
-6.17846
-6.02736
-5.8695
-5.70492
-5.53363
-5.35567
-5.1711
-4.98
-4.78243
-4.57851
-4.36836
-4.15209
-3.92986
-3.70183
-3.46817
-3.22906
-2.98472
-2.73534
-2.48117
-2.22243
-1.95937
-1.69226
-1.42137
-1.14696
-0.869331
-0.588774
-0.305584
-0.020064
0.26748
0.556739
0.847398
1.13915
1.43167
1.72465
2.01779
2.31078
2.60333
2.89512
3.18588
3.47532
3.76318
4.04917
4.33305
4.61457
4.89349
5.1696
5.44267
5.7125
5.97891
6.24171
6.50074
6.75585
7.00689
7.25373
7.49625
7.73433
7.96789
8.19681
8.42101
8.64041
8.85494
9.06451
9.26908
9.46858
9.66299
9.85225
10.0363
10.2152
10.3887
10.5568
10.7194
10.8764
11.0275
11.1721
11.3103
11.438
11.5679
11.631
-6.73795
-6.7428
-6.74921
-6.75534
-6.76063
-6.76531
-6.76963
-6.77377
-6.77788
-6.78209
-6.78649
-6.79118
-6.79622
-6.80169
-6.80761
-6.81404
-6.82102
-6.82857
-6.83672
-6.84549
-6.85491
-6.86499
-6.87575
-6.8872
-6.89936
-6.91224
-6.92585
-6.94019
-6.95528
-6.97112
-6.98772
-7.00508
-7.0232
-7.04208
-7.06172
-7.08212
-7.10328
-7.12518
-7.14782
-7.17118
-7.19525
-7.22001
-7.24544
-7.2715
-7.29817
-7.32541
-7.35318
-7.38144
-7.41013
-7.4392
-7.46858
-7.4982
-7.52799
-7.55787
-7.58775
-7.61753
-7.64711
-7.67639
-7.70525
-7.73357
-7.76122
-7.78806
-7.81397
-7.83879
-7.86238
-7.88458
-7.90523
-7.92416
-7.94121
-7.95621
-7.96898
-7.97934
-7.98712
-7.99214
-7.99421
-7.99316
-7.98881
-7.98096
-7.96946
-7.95411
-7.93473
-7.91117
-7.88323
-7.85077
-7.81361
-7.77159
-7.72456
-7.67237
-7.61487
-7.55192
-7.48338
-7.40911
-7.32895
-7.24275
-7.1504
-7.05178
-6.9468
-6.83536
-6.71739
-6.59283
-6.46163
-6.32374
-6.17913
-6.0278
-5.86974
-5.70496
-5.53348
-5.35537
-5.17065
-4.97942
-4.78175
-4.57774
-4.36752
-4.15121
-3.92895
-3.70091
-3.46726
-3.22819
-2.9839
-2.7346
-2.48051
-2.22188
-1.95896
-1.69199
-1.42126
-1.14703
-0.869599
-0.589253
-0.30629
-0.0210098
0.266281
0.555274
0.845658
1.13712
1.42935
1.72203
2.01486
2.30754
2.59976
2.89123
3.18167
3.47079
3.75832
4.04399
4.32755
4.60875
4.88737
5.16317
5.43594
5.70549
5.97162
6.23415
6.49293
6.7478
6.99861
7.24524
7.48756
7.72546
7.95884
8.18761
8.41168
8.63096
8.84538
9.05488
9.25938
9.45883
9.65319
9.84241
10.0264
10.2052
10.3786
10.5465
10.7089
10.8654
11.0159
11.1596
11.2965
11.4225
11.5505
11.6103
-6.74833
-6.7527
-6.7585
-6.7641
-6.76899
-6.77335
-6.77739
-6.78129
-6.78518
-6.78918
-6.79339
-6.79788
-6.80274
-6.80801
-6.81376
-6.82002
-6.82683
-6.83422
-6.84223
-6.85086
-6.86015
-6.87011
-6.88077
-6.89213
-6.90421
-6.91702
-6.93058
-6.94489
-6.95995
-6.97579
-6.99239
-7.00977
-7.02793
-7.04687
-7.06659
-7.08708
-7.10834
-7.13035
-7.15312
-7.17662
-7.20084
-7.22576
-7.25134
-7.27757
-7.3044
-7.3318
-7.35973
-7.38814
-7.41697
-7.44617
-7.47566
-7.50539
-7.53527
-7.56521
-7.59513
-7.62494
-7.65453
-7.68378
-7.71259
-7.74084
-7.76839
-7.79512
-7.82088
-7.84553
-7.86893
-7.89091
-7.91132
-7.92999
-7.94676
-7.96146
-7.97392
-7.98396
-7.9914
-7.99607
-7.99778
-7.99637
-7.99164
-7.98343
-7.97156
-7.95584
-7.93612
-7.9122
-7.88393
-7.85114
-7.81366
-7.77134
-7.72402
-7.67155
-7.61379
-7.55058
-7.48179
-7.40724
-7.32676
-7.24025
-7.14757
-7.04864
-6.94335
-6.83161
-6.71337
-6.58854
-6.45708
-6.31894
-6.17412
-6.02258
-5.86434
-5.69939
-5.52778
-5.34954
-5.16472
-4.97341
-4.77568
-4.57165
-4.36141
-4.14511
-3.92289
-3.6949
-3.46134
-3.22237
-2.97821
-2.72905
-2.47514
-2.2167
-1.95398
-1.68725
-1.41676
-1.1428
-0.865653
-0.585606
-0.302956
-0.018004
0.268946
0.557585
0.847604
1.13869
1.43054
1.72283
2.01526
2.30754
2.59936
2.89043
3.18046
3.46917
3.75629
4.04156
4.32473
4.60554
4.88377
5.1592
5.43161
5.7008
5.96659
6.2288
6.48727
6.74184
6.99237
7.23873
7.48081
7.71849
7.95167
8.18025
8.40415
8.62328
8.83758
9.04697
9.25138
9.45077
9.64507
9.83423
10.0182
10.1968
10.3701
10.5379
10.6999
10.856
11.0058
11.1486
11.2843
11.4086
11.5347
11.592
-6.75938
-6.76326
-6.76841
-6.77339
-6.77775
-6.78163
-6.78523
-6.78871
-6.79219
-6.7958
-6.79964
-6.80378
-6.8083
-6.81327
-6.81871
-6.8247
-6.83125
-6.8384
-6.84617
-6.85461
-6.86371
-6.87351
-6.88402
-6.89526
-6.90723
-6.91996
-6.93344
-6.9477
-6.96274
-6.97857
-6.99518
-7.01259
-7.03079
-7.04979
-7.06958
-7.09015
-7.11151
-7.13363
-7.1565
-7.18011
-7.20444
-7.22946
-7.25514
-7.28146
-7.30837
-7.33584
-7.36381
-7.39225
-7.42109
-7.45027
-7.47973
-7.50939
-7.53918
-7.56902
-7.5988
-7.62844
-7.65784
-7.68688
-7.71545
-7.74344
-7.7707
-7.79712
-7.82255
-7.84686
-7.86989
-7.89148
-7.91149
-7.92976
-7.9461
-7.96037
-7.97239
-7.98198
-7.98898
-7.9932
-7.99447
-7.99262
-7.98746
-7.97883
-7.96654
-7.95043
-7.93032
-7.90604
-7.87743
-7.84431
-7.80653
-7.76392
-7.71633
-7.66362
-7.60562
-7.54218
-7.47309
-7.39822
-7.31741
-7.23058
-7.1376
-7.03837
-6.9328
-6.82081
-6.70232
-6.57727
-6.44561
-6.3073
-6.16232
-6.01065
-5.85229
-5.68726
-5.51558
-5.3373
-5.15248
-4.96118
-4.76349
-4.55951
-4.34937
-4.13318
-3.9111
-3.68328
-3.4499
-3.21114
-2.96721
-2.71832
-2.46469
-2.20655
-1.94416
-1.67777
-1.40764
-1.13406
-0.857309
-0.577674
-0.295451
-0.0109405
0.275555
0.563729
0.853273
1.14388
1.43523
1.72703
2.01896
2.31073
2.60205
2.89261
3.18213
3.47035
3.75697
4.04175
4.32444
4.60478
4.88255
5.15752
5.42949
5.69826
5.96365
6.22547
6.48356
6.73778
6.98798
7.23403
7.47582
7.71323
7.94616
8.17453
8.39823
8.6172
8.83135
9.04061
9.24493
9.44423
9.63847
9.82756
10.0114
10.19
10.3631
10.5307
10.6924
10.848
10.9972
11.139
11.2735
11.3963
11.5206
11.5759
-6.77135
-6.77477
-6.77924
-6.78352
-6.78719
-6.79038
-6.7933
-6.79611
-6.79895
-6.80195
-6.80521
-6.80881
-6.81282
-6.81731
-6.82233
-6.82791
-6.8341
-6.84092
-6.84839
-6.85655
-6.86541
-6.87498
-6.8853
-6.89636
-6.90819
-6.92079
-6.93418
-6.94836
-6.96333
-6.97911
-6.9957
-7.01309
-7.03129
-7.05028
-7.07008
-7.09066
-7.11202
-7.13414
-7.15701
-7.1806
-7.20489
-7.22986
-7.25547
-7.28169
-7.30848
-7.3358
-7.3636
-7.39184
-7.42045
-7.44937
-7.47854
-7.50789
-7.53734
-7.56681
-7.5962
-7.62543
-7.65438
-7.68297
-7.71107
-7.73856
-7.76532
-7.79122
-7.81612
-7.83988
-7.86236
-7.88341
-7.90286
-7.92057
-7.93637
-7.95009
-7.96156
-7.97062
-7.97709
-7.9808
-7.98158
-7.97925
-7.97363
-7.96456
-7.95186
-7.93536
-7.91489
-7.89028
-7.86136
-7.82797
-7.78994
-7.74712
-7.69935
-7.64647
-7.58825
-7.52454
-7.45515
-7.37998
-7.2989
-7.21181
-7.1186
-7.01916
-6.9134
-6.80124
-6.6826
-6.55743
-6.42567
-6.28729
-6.14226
-5.99058
-5.83223
-5.66724
-5.49563
-5.31744
-5.13274
-4.94159
-4.74408
-4.5403
-4.33039
-4.11446
-3.89266
-3.66516
-3.43212
-3.19373
-2.95018
-2.7017
-2.4485
-2.19082
-1.92891
-1.66301
-1.39341
-1.12036
-0.844157
-0.565087
-0.283442
0.000478671
0.286373
0.573937
0.862861