/*--------------------------------*- C++ -*----------------------------------*\
  =========                 |
  \\      /  F ield         | OpenFOAM: The Open Source CFD Toolbox
   \\    /   O peration     | Website:  https://openfoam.org
    \\  /    A nd           | Version:  11
     \\/     M anipulation  |
\*---------------------------------------------------------------------------*/
FoamFile
{
    format      ascii;
    class       volScalarField;
    location    "800";
    object      alphat;
}
// * * * * * * * * * * * * * * * * * * * * * * * * * * * * * * * * * * * * * //

dimensions      [1 -1 -1 0 0 0 0];

internalField   nonuniform List<scalar> 
78750
(
1.32964e-08
2.50014e-06
2.61407e-05
2.77846e-05
2.80719e-05
2.95543e-05
2.97986e-05
2.98008e-05
2.9981e-05
3.02981e-05
3.08191e-05
3.13673e-05
3.20113e-05
3.27771e-05
3.35451e-05
3.43595e-05
3.52226e-05
3.61015e-05
3.68152e-05
3.79916e-05
3.76284e-05
3.92331e-05
4.21507e-05
4.19359e-05
4.19528e-05
4.22476e-05
4.2201e-05
4.16003e-05
4.04172e-05
3.85903e-05
3.72766e-05
3.72735e-05
3.32355e-05
6.7048e-06
4.60655e-08
3.64269e-09
9.23875e-07
1.17949e-05
1.15509e-05
1.41163e-05
1.98527e-05
2.78184e-05
3.52271e-05
3.99716e-05
4.26552e-05
4.57513e-05
4.84086e-05
4.98108e-05
5.25148e-05
5.46629e-05
5.68772e-05
5.93231e-05
6.13405e-05
6.57981e-05
7.01021e-05
7.11222e-05
6.89024e-05
6.62667e-05
6.42172e-05
6.41345e-05
6.27931e-05
4.49311e-05
4.38336e-05
4.77485e-05
3.81786e-05
3.23285e-05
2.96907e-05
2.58075e-05
4.2985e-06
2.37841e-08
2.5578e-09
6.76712e-07
6.74631e-06
1.13223e-05
2.16414e-05
3.9341e-05
5.49623e-05
6.44129e-05
7.05358e-05
7.40656e-05
7.66272e-05
7.82527e-05
7.9695e-05
8.05152e-05
8.09585e-05
8.10661e-05
8.07888e-05
7.90133e-05
7.15644e-05
6.65803e-05
6.94187e-05
7.03173e-05
6.60374e-05
6.11323e-05
5.92553e-05
5.34191e-05
3.97716e-05
4.02037e-05
3.89077e-05
2.78503e-05
2.26742e-05
1.99546e-05
1.80605e-05
2.37818e-06
1.09164e-08
3.66445e-09
9.45545e-07
7.9466e-06
2.13297e-05
4.28872e-05
6.15789e-05
7.28002e-05
8.04868e-05
8.55614e-05
8.83438e-05
8.96175e-05
8.95842e-05
8.86613e-05
8.70697e-05
8.48031e-05
8.19878e-05
7.86937e-05
7.54036e-05
7.19356e-05
6.68847e-05
5.80718e-05
5.32757e-05
5.1394e-05
4.8159e-05
4.61299e-05
4.10251e-05
3.22389e-05
3.32256e-05
3.19174e-05
2.27413e-05
1.76433e-05
1.48435e-05
1.35937e-05
1.59726e-06
6.6421e-09
5.66177e-09
1.44821e-06
1.01271e-05
2.56964e-05
4.82126e-05
6.70701e-05
7.79203e-05
8.37455e-05
8.68564e-05
8.84879e-05
8.86373e-05
8.76638e-05
8.57609e-05
8.29421e-05
7.94573e-05
7.54765e-05
7.11749e-05
6.64716e-05
6.16131e-05
5.77779e-05
5.51243e-05
5.21913e-05
4.83485e-05
4.56107e-05
4.43421e-05
4.0388e-05
3.32659e-05
3.36351e-05
3.00527e-05
2.02878e-05
1.45566e-05
1.15145e-05
1.0012e-05
1.13258e-06
4.57215e-09
6.97877e-09
1.76225e-06
1.2386e-05
3.35943e-05
6.06972e-05
7.8071e-05
8.71502e-05
9.20563e-05
9.42199e-05
9.44797e-05
9.3361e-05
9.12375e-05
8.81922e-05
8.44336e-05
8.01616e-05
7.55757e-05
7.088e-05
6.58345e-05
6.06911e-05
5.59226e-05
5.22519e-05
4.9414e-05
4.66967e-05
4.43876e-05
4.27909e-05
3.88817e-05
3.27027e-05
3.27372e-05
2.84191e-05
1.87836e-05
1.30097e-05
9.97101e-06
9.77824e-06
1.00705e-06
3.92798e-09
8.63038e-09
2.15721e-06
1.34398e-05
3.60073e-05
6.36608e-05
8.02772e-05
8.82679e-05
9.1928e-05
9.28738e-05
9.21927e-05
9.00762e-05
8.69261e-05
8.30245e-05
7.86559e-05
7.40755e-05
6.94953e-05
6.5028e-05
6.12941e-05
5.84047e-05
5.58494e-05
5.30388e-05
4.98801e-05
4.69946e-05
4.47145e-05
4.30759e-05
3.94572e-05
3.38321e-05
3.36661e-05
2.80795e-05
1.78277e-05
1.1894e-05
9.12714e-06
9.28743e-06
9.3378e-07
3.62789e-09
9.51048e-09
2.36127e-06
1.48436e-05
4.03985e-05
6.92986e-05
8.50748e-05
9.24124e-05
9.56177e-05
9.61229e-05
9.49502e-05
9.22923e-05
8.86313e-05
8.42622e-05
7.94845e-05
7.45749e-05
6.97721e-05
6.51431e-05
6.07032e-05
5.68201e-05
5.34797e-05
5.06013e-05
4.82919e-05
4.62237e-05
4.43475e-05
4.18727e-05
3.78599e-05
3.31937e-05
3.31381e-05
2.77546e-05
1.75526e-05
1.13548e-05
8.56283e-06
9.29738e-06
8.86107e-07
3.41811e-09
1.1145e-08
2.73949e-06
1.56381e-05
4.22998e-05
7.13425e-05
8.62962e-05
9.28729e-05
9.5321e-05
9.48661e-05
9.26976e-05
8.94195e-05
8.54102e-05
8.08083e-05
7.59544e-05
7.10754e-05
6.6366e-05
6.2202e-05
5.87642e-05
5.57675e-05
5.30897e-05
5.08674e-05
4.89224e-05
4.72864e-05
4.56085e-05
4.29788e-05
3.87408e-05
3.40481e-05
3.34746e-05
2.72954e-05
1.70028e-05
1.08789e-05
8.37149e-06
9.7327e-06
9.01043e-07
3.45182e-09
1.18676e-08
2.90242e-06
1.65485e-05
4.47713e-05
7.41192e-05
8.86893e-05
9.49073e-05
9.69591e-05
9.62636e-05
9.39879e-05
9.05378e-05
8.62806e-05
8.14351e-05
7.63878e-05
7.13507e-05
6.65203e-05
6.21065e-05
5.81492e-05
5.45117e-05
5.09139e-05
4.7969e-05
4.61247e-05
4.50311e-05
4.38559e-05
4.1201e-05
3.75199e-05
3.79364e-05
3.60441e-05
2.55636e-05
1.65194e-05
1.08076e-05
8.4223e-06
9.24732e-06
8.74646e-07
3.39515e-09
1.35386e-08
3.27864e-06
1.7335e-05
4.65774e-05
7.56208e-05
8.93194e-05
9.49336e-05
9.64984e-05
9.55967e-05
9.29696e-05
8.91316e-05
8.47128e-05
7.99603e-05
7.50225e-05
7.00449e-05
6.51657e-05
6.04871e-05
5.62685e-05
5.27379e-05
5.00262e-05
4.80625e-05
4.66895e-05
4.56148e-05
4.45494e-05
4.21226e-05
3.87834e-05
3.98131e-05
3.56702e-05
2.49576e-05
1.6642e-05
1.08569e-05
8.35169e-06
8.71864e-06
8.65429e-07
3.39301e-09
1.41864e-08
3.42093e-06
1.80217e-05
4.81859e-05
7.71662e-05
9.05672e-05
9.59304e-05
9.72353e-05
9.61452e-05
9.35551e-05
8.99429e-05
8.56287e-05
8.08639e-05
7.58926e-05
7.08686e-05
6.5938e-05
6.12473e-05
5.69365e-05
5.31061e-05
4.97368e-05
4.67571e-05
4.47573e-05
4.38535e-05
4.26772e-05
4.0217e-05
3.76539e-05
3.87845e-05
3.42025e-05
2.35773e-05
1.55806e-05
1.04741e-05
8.5425e-06
1.0299e-05
8.54206e-07
3.27436e-09
1.58685e-08
3.7911e-06
1.88333e-05
4.99435e-05
7.84173e-05
9.10424e-05
9.59684e-05
9.70109e-05
9.57669e-05
9.30658e-05
8.94179e-05
8.51908e-05
8.05748e-05
7.57129e-05
7.06978e-05
6.56887e-05
6.07988e-05
5.61377e-05
5.19235e-05
4.83607e-05
4.56049e-05
4.34279e-05
4.19592e-05
4.05442e-05
3.83608e-05
3.65297e-05
3.76272e-05
3.28657e-05
2.26094e-05
1.48363e-05
1.01778e-05
8.6889e-06
1.12834e-05
8.6681e-07
3.33231e-09
1.6437e-08
3.91306e-06
1.93646e-05
5.11252e-05
7.94372e-05
9.18043e-05
9.65541e-05
9.74666e-05
9.61551e-05
9.34599e-05
8.98717e-05
8.5751e-05
8.12797e-05
7.66426e-05
7.19185e-05
6.71139e-05
6.22474e-05
5.74913e-05
5.30013e-05
4.88581e-05
4.52374e-05
4.24117e-05
4.01551e-05
3.7535e-05
3.55801e-05
3.79796e-05
3.77303e-05
3.02679e-05
2.2515e-05
1.53442e-05
1.05113e-05
9.03169e-06
1.23713e-05
9.26539e-07
3.57627e-09
1.80516e-08
4.26014e-06
2.01406e-05
5.26766e-05
8.04766e-05
9.23145e-05
9.68882e-05
9.78247e-05
9.66491e-05
9.4131e-05
9.07063e-05
8.66952e-05
8.22541e-05
7.75762e-05
7.28071e-05
6.80464e-05
6.33169e-05
5.85807e-05
5.3848e-05
4.92477e-05
4.50646e-05
4.15119e-05
3.8656e-05
3.61313e-05
3.45519e-05
3.68182e-05
3.55768e-05
2.84205e-05
2.16255e-05
1.51712e-05
1.06653e-05
9.21633e-06
1.2662e-05
9.18951e-07
3.50238e-09
1.854e-08
4.36285e-06
2.05789e-05
5.34569e-05
8.11449e-05
9.30047e-05
9.7663e-05
9.87173e-05
9.76861e-05
9.53447e-05
9.21206e-05
8.83029e-05
8.40402e-05
7.9462e-05
7.46594e-05
6.97325e-05
6.48038e-05
5.9991e-05
5.53497e-05
5.07883e-05
4.6209e-05
4.18458e-05
3.80741e-05
3.48032e-05
3.27158e-05
3.40339e-05
3.23876e-05
2.59154e-05
1.96928e-05
1.41417e-05
1.05682e-05
9.81277e-06
1.43667e-05
9.25395e-07
3.5253e-09
1.99215e-08
4.65498e-06
2.12459e-05
5.44721e-05
8.18151e-05
9.35683e-05
9.83279e-05
9.95937e-05
9.88202e-05
9.67429e-05
9.37513e-05
9.00998e-05
8.59479e-05
8.14236e-05
7.66186e-05
7.16063e-05
6.64644e-05
6.13054e-05
5.62788e-05
5.14581e-05
4.67806e-05
4.21135e-05
3.74715e-05
3.33609e-05
3.06547e-05
3.13086e-05
2.97761e-05
2.43019e-05
1.90428e-05
1.40299e-05
1.06578e-05
1.0162e-05
1.52375e-05
9.83375e-07
3.84513e-09
2.01138e-08
4.69096e-06
2.15291e-05
5.46916e-05
8.2002e-05
9.39766e-05
9.90084e-05
0.000100529
0.0001
9.81797e-05
9.54499e-05
9.20447e-05
8.81106e-05
8.37483e-05
7.90389e-05
7.40591e-05
6.88926e-05
6.36416e-05
5.84325e-05
5.33468e-05
4.84142e-05
4.35996e-05
3.8772e-05
3.38177e-05
2.97914e-05
2.95648e-05
2.76682e-05
2.28242e-05
1.86617e-05
1.42429e-05
1.08901e-05
1.01845e-05
1.5373e-05
1.02292e-06
3.97047e-09
2.11823e-08
4.88772e-06
2.17667e-05
5.44123e-05
8.17803e-05
9.43152e-05
9.97161e-05
0.000101565
0.000101377
9.99105e-05
9.75138e-05
9.44e-05
9.06913e-05
8.64813e-05
8.18508e-05
7.68794e-05
7.16563e-05
6.62941e-05
6.09269e-05
5.56417e-05
5.05105e-05
4.55624e-05
4.06312e-05
3.50299e-05
2.97293e-05
2.76815e-05
2.45949e-05
2.01002e-05
1.66819e-05
1.34046e-05
1.09509e-05
1.08159e-05
1.71179e-05
1.03813e-06
3.97006e-09
2.16314e-08
4.95628e-06
2.19624e-05
5.47696e-05
8.21413e-05
9.47484e-05
0.000100449
0.000102691
0.000102868
0.000101699
9.95331e-05
9.65741e-05
9.29647e-05
8.88114e-05
8.4208e-05
7.92426e-05
7.40064e-05
6.86103e-05
6.31868e-05
5.78388e-05
5.2678e-05
4.77219e-05
4.26423e-05
3.61612e-05
2.96496e-05
2.6137e-05
2.24217e-05
1.78503e-05
1.46042e-05
1.22687e-05
1.08903e-05
1.17059e-05
1.9018e-05
1.05168e-06
4.0358e-09
2.24232e-08
5.11001e-06
2.18517e-05
5.36676e-05
8.17201e-05
9.51818e-05
0.000101348
0.000103891
0.000104297
0.000103331
0.000101343
9.85089e-05
9.49609e-05
9.08122e-05
8.61709e-05
8.11431e-05
7.58335e-05
7.0419e-05
6.50167e-05
5.97771e-05
5.48239e-05
5.01944e-05
4.53805e-05
3.82683e-05
3.05557e-05
2.51397e-05
2.19732e-05
1.76735e-05
1.39082e-05
1.18853e-05
1.07686e-05
1.17135e-05
1.88853e-05
1.1146e-06
4.46055e-09
2.28342e-08
5.21757e-06
2.16779e-05
5.30649e-05
8.15576e-05
9.54886e-05
0.000101999
0.000104826
0.00010545
0.000104642
0.000102759
9.99829e-05
9.64582e-05
9.23189e-05
8.76939e-05
8.27257e-05
7.74987e-05
7.26307e-05
6.76182e-05
6.22674e-05
5.72752e-05
5.25785e-05
4.77519e-05
4.21785e-05
3.3778e-05
2.53942e-05
2.20967e-05
1.8269e-05
1.39079e-05
1.1626e-05
1.03469e-05
1.11641e-05
1.78154e-05
1.15333e-06
4.6491e-09
2.38059e-08
5.45911e-06
2.14013e-05
5.20768e-05
8.12502e-05
9.59187e-05
0.000102806
0.000105903
0.00010669
0.000106009
0.000104218
0.000101489
9.79535e-05
9.37955e-05
8.91924e-05
8.4262e-05
7.88448e-05
7.26632e-05
6.74728e-05
6.34437e-05
5.98095e-05
5.6169e-05
5.20782e-05
4.65924e-05
3.72342e-05
2.69773e-05
2.23664e-05
1.76392e-05
1.31475e-05
1.11129e-05
1.01477e-05
1.13352e-05
1.87055e-05
1.1716e-06
4.60942e-09
2.50548e-08
5.72514e-06
2.12906e-05
5.14316e-05
8.12492e-05
9.65518e-05
0.000103715
0.000107041
0.000107953
0.000107311
0.000105462
0.000102564
9.87109e-05
9.41099e-05
8.85811e-05
8.21759e-05
7.6571e-05
7.2816e-05
6.93938e-05
6.61041e-05
6.27344e-05
5.92017e-05
5.51105e-05
4.92868e-05
3.92685e-05
2.83661e-05
2.26418e-05
1.692e-05
1.23023e-05
1.05268e-05
1.02043e-05
1.21695e-05
2.02535e-05
1.1894e-06
4.67393e-09
2.75591e-08
6.2231e-06
2.17625e-05
5.1929e-05
8.17112e-05
9.72382e-05
0.000104688
0.000108179
0.000109
0.000108056
0.000105705
0.000102134
9.73497e-05
9.13414e-05
8.49442e-05
7.97857e-05
7.59662e-05
7.29172e-05
7.05357e-05
6.83123e-05
6.58421e-05
6.30559e-05
5.94819e-05
5.20755e-05
4.0707e-05
2.97366e-05
2.41459e-05
1.78894e-05
1.242e-05
1.02784e-05
1.00399e-05
1.21953e-05
1.99415e-05
1.24858e-06
5.09261e-09
3.0203e-08
6.73206e-06
2.22505e-05
5.29249e-05
8.24789e-05
9.74242e-05
0.00010464
0.000108103
0.000108807
0.00010761
0.00010475
0.000100698
9.50731e-05
8.84442e-05
8.26997e-05
7.78445e-05
7.43668e-05
7.26526e-05
7.24798e-05
7.28169e-05
7.22556e-05
6.95516e-05
6.4163e-05
5.56166e-05
4.39601e-05
3.2385e-05
2.68447e-05
1.97209e-05
1.33397e-05
1.08542e-05
1.01163e-05
1.15502e-05
1.89506e-05
1.30433e-06
5.31353e-09
3.31099e-08
7.2407e-06
2.302e-05
5.4409e-05
8.36127e-05
9.7967e-05
0.000104821
0.000107946
0.000108247
0.000106634
0.000103316
9.75796e-05
9.13344e-05
8.56435e-05
7.90048e-05
7.33123e-05
7.02418e-05
7.01687e-05
7.26259e-05
7.64183e-05
7.93457e-05
7.82287e-05
7.16278e-05
6.12641e-05
4.82855e-05
3.54404e-05
2.84365e-05
2.03819e-05
1.37782e-05
1.08113e-05
9.961e-06
1.18524e-05
2.05244e-05
1.32091e-06
5.21151e-09
3.4951e-08
7.43539e-06
2.38518e-05
5.6438e-05
8.51007e-05
9.86774e-05
0.000105048
0.000107527
0.000107341
0.000104794
9.9746e-05
9.46127e-05
8.85153e-05
8.09353e-05
7.39599e-05
6.91216e-05
6.71982e-05
6.85064e-05
7.28821e-05
7.9229e-05
8.44815e-05
8.35279e-05
7.56788e-05
6.54115e-05
5.32215e-05
3.96807e-05
2.87946e-05
1.91241e-05
1.30821e-05
1.06352e-05
1.0331e-05
1.29959e-05
2.17355e-05
1.32693e-06
5.22632e-09
3.71504e-08
7.72201e-06
2.4869e-05
5.8627e-05
8.65285e-05
9.90888e-05
0.000104532
0.00010594
0.000104494
0.000101126
9.70592e-05
9.12458e-05
8.38253e-05
7.62409e-05
6.97832e-05
6.55213e-05
6.43526e-05
6.67648e-05
7.24837e-05
7.98246e-05
8.4706e-05
8.21834e-05
7.56037e-05
6.79586e-05
5.78467e-05
4.62663e-05
3.20092e-05
1.95643e-05
1.32015e-05
1.06237e-05
1.04503e-05
1.31962e-05
2.13338e-05
1.3754e-06
5.4094e-09
3.83736e-08
7.88726e-06
2.56285e-05
6.03017e-05
8.7383e-05
9.88949e-05
0.000103362
0.000103952
0.000102174
9.89499e-05
9.42608e-05
8.76987e-05
8.04262e-05
7.31384e-05
6.70104e-05
6.30579e-05
6.21076e-05
6.47245e-05
7.0844e-05
7.9042e-05
8.50875e-05
8.33918e-05
7.77109e-05
7.11772e-05
6.22637e-05
5.27955e-05
3.77991e-05
2.30529e-05
1.43852e-05
1.08304e-05
1.05142e-05
1.33257e-05
2.15595e-05
1.431e-06
5.75747e-09
3.95498e-08
8.05489e-06
2.62947e-05
6.17655e-05
8.80248e-05
9.85868e-05
0.000102316
0.000102385
0.000100376
9.67411e-05
9.17664e-05
8.58608e-05
7.91554e-05
7.23495e-05
6.61372e-05
6.16243e-05
5.98791e-05
6.17536e-05
6.76433e-05
7.63242e-05
8.35284e-05
8.34257e-05
7.92434e-05
7.36603e-05
6.4803e-05
5.56695e-05
4.13209e-05
2.69147e-05
1.71693e-05
1.19374e-05
1.048e-05
1.27058e-05
2.22737e-05
1.51963e-06
6.02771e-09
3.98628e-08
8.09442e-06
2.64904e-05
6.20828e-05
8.76485e-05
9.76323e-05
0.000100996
0.000100929
9.88567e-05
9.53388e-05
9.07366e-05
8.52134e-05
7.91228e-05
7.25122e-05
6.60017e-05
6.04775e-05
5.75862e-05
5.84847e-05
6.33999e-05
7.17733e-05
7.99759e-05
8.20037e-05
7.9778e-05
7.56204e-05
6.7007e-05
5.59924e-05
4.0598e-05
2.67965e-05
1.78909e-05
1.27868e-05
1.13109e-05
1.44941e-05
2.26721e-05
1.54599e-06
6.12423e-09
4.01725e-08
8.15581e-06
2.67556e-05
6.22348e-05
8.73413e-05
9.69784e-05
0.000100176
0.000100189
9.82685e-05
9.50049e-05
9.06405e-05
8.53102e-05
7.9346e-05
7.27252e-05
6.59833e-05
6.00747e-05
5.5938e-05
5.50108e-05
5.85326e-05
6.56895e-05
7.32984e-05
7.66326e-05
7.63465e-05
7.40513e-05
6.79147e-05
5.50727e-05
3.92807e-05
2.63873e-05
1.78904e-05
1.3414e-05
1.24344e-05
1.61019e-05
2.208e-05
1.58956e-06
6.29718e-09
4.02583e-08
8.17735e-06
2.67947e-05
6.22195e-05
8.73265e-05
9.70777e-05
0.000100416
0.000100475
9.86248e-05
9.56382e-05
9.14256e-05
8.64627e-05
8.03306e-05
7.35562e-05
6.65868e-05
6.02023e-05
5.54034e-05
5.30359e-05
5.36719e-05
5.77989e-05
6.49367e-05
7.1686e-05
7.44907e-05
7.23674e-05
6.66188e-05
5.48362e-05
4.01856e-05
2.7665e-05
1.8835e-05
1.40913e-05
1.30822e-05
1.68062e-05
2.27375e-05
1.69859e-06
6.80839e-09
4.06553e-08
8.20965e-06
2.68156e-05
6.15382e-05
8.66698e-05
9.66743e-05
0.000100136
0.000100324
9.87014e-05
9.59575e-05
9.21239e-05
8.73332e-05
8.17332e-05
7.52979e-05
6.82658e-05
6.12361e-05
5.51866e-05
5.12417e-05
5.02783e-05
5.29772e-05
5.83375e-05
6.46507e-05
6.89291e-05
7.00468e-05
6.52725e-05
5.36563e-05
4.10514e-05
2.97801e-05
2.08344e-05
1.5328e-05
1.3704e-05
1.7086e-05
2.40756e-05
1.80706e-06
7.29665e-09
4.06636e-08
8.21916e-06
2.65832e-05
6.03812e-05
8.54254e-05
9.59062e-05
9.98871e-05
0.000100332
9.87595e-05
9.57918e-05
9.21834e-05
8.79126e-05
8.32655e-05
7.79741e-05
7.19479e-05
6.52347e-05
5.82703e-05
5.21353e-05
4.81612e-05
4.72454e-05
5.00316e-05
5.57648e-05
6.17177e-05
6.56885e-05
6.15069e-05
5.0819e-05
3.9813e-05
2.97994e-05
2.17431e-05
1.64243e-05
1.47583e-05
1.85252e-05
2.43207e-05
1.89974e-06
7.60004e-09
4.05035e-08
8.21687e-06
2.61931e-05
5.95306e-05
8.49424e-05
9.5923e-05
9.98574e-05
0.00010017
9.85441e-05
9.60071e-05
9.28082e-05
8.90403e-05
8.47086e-05
7.9887e-05
7.46595e-05
6.90042e-05
6.28035e-05
5.6195e-05
5.0041e-05
4.5694e-05
4.45306e-05
4.67098e-05
5.1512e-05
5.69849e-05
5.57859e-05
4.73751e-05
3.78043e-05
2.8705e-05
2.1629e-05
1.72115e-05
1.61998e-05
2.06768e-05
2.42455e-05
1.98907e-06
7.95388e-09
4.01323e-08
8.16401e-06
2.55407e-05
5.85026e-05
8.45072e-05
9.53885e-05
9.95371e-05
0.000100446
9.94568e-05
9.72767e-05
9.40573e-05
9.00357e-05
8.55037e-05
8.0749e-05
7.59143e-05
7.09438e-05
6.58595e-05
6.03298e-05
5.43392e-05
4.84942e-05
4.38708e-05
4.17007e-05
4.28643e-05
4.77596e-05
4.91173e-05
4.34932e-05
3.60648e-05
2.81653e-05
2.17689e-05
1.785e-05
1.7339e-05
2.22414e-05
2.48562e-05
2.11107e-06
8.65618e-09
3.96152e-08
8.11075e-06
2.51075e-05
5.73229e-05
8.33088e-05
9.50099e-05
0.000100036
0.000101475
0.000100692
9.83874e-05
9.49232e-05
9.06016e-05
8.58386e-05
8.10854e-05
7.6568e-05
7.22589e-05
6.77763e-05
6.30025e-05
5.77603e-05
5.21658e-05
4.66575e-05
4.19365e-05
3.94586e-05
4.21094e-05
4.35689e-05
3.97033e-05
3.48354e-05
2.85014e-05
2.25494e-05
1.86043e-05
1.79728e-05
2.27883e-05
2.65229e-05
2.26649e-06
9.51617e-09
3.92559e-08
8.06664e-06
2.46136e-05
5.62734e-05
8.34666e-05
9.59527e-05
0.000101114
0.000102449
0.000101446
9.89145e-05
9.52378e-05
9.06918e-05
8.57006e-05
8.07104e-05
7.62017e-05
7.25424e-05
6.93835e-05
6.56898e-05
6.11561e-05
5.59361e-05
5.03311e-05
4.45458e-05
3.99955e-05
4.03593e-05
3.99974e-05
3.6186e-05
3.28233e-05
2.80384e-05
2.29086e-05
1.91655e-05
1.85633e-05
2.34989e-05
2.74847e-05
2.40516e-06
9.93309e-09
3.95823e-08
8.04207e-06
2.44076e-05
5.60639e-05
8.35328e-05
9.62343e-05
0.000101551
0.000102961
0.000101939
9.92979e-05
9.54069e-05
9.05266e-05
8.5149e-05
7.99304e-05
7.55613e-05
7.21807e-05
6.97111e-05
6.77641e-05
6.51393e-05
6.08571e-05
5.4711e-05
4.77521e-05
4.18732e-05
4.0303e-05
3.77992e-05
3.32751e-05
3.01755e-05
2.6428e-05
2.24028e-05
1.96353e-05
1.98445e-05
2.57469e-05
2.71586e-05
2.54077e-06
1.03746e-08
4.00581e-08
8.04065e-06
2.45075e-05
5.61265e-05
8.3197e-05
9.58145e-05
0.000101253
0.000102811
0.000101869
9.91823e-05
9.50943e-05
8.97786e-05
8.38524e-05
7.82456e-05
7.3418e-05
7.00297e-05
6.82623e-05
6.75084e-05
6.66865e-05
6.44099e-05
5.95945e-05
5.26726e-05
4.56205e-05
4.16709e-05
3.69321e-05
3.15167e-05
2.79126e-05
2.46432e-05
2.17334e-05
2.00384e-05
2.13922e-05
2.82622e-05
2.66623e-05
2.64186e-06
1.07975e-08
4.04913e-08
8.05223e-06
2.46488e-05
5.64122e-05
8.33533e-05
9.5911e-05
0.000101284
0.000102697
0.00010155
9.8649e-05
9.4114e-05
8.85028e-05
8.24849e-05
7.63423e-05
7.1141e-05
6.76602e-05
6.61271e-05
6.61622e-05
6.66937e-05
6.60584e-05
6.25793e-05
5.66012e-05
5.00812e-05
4.54991e-05
3.89131e-05
3.16483e-05
2.7372e-05
2.41122e-05
2.15665e-05
2.04636e-05
2.23078e-05
2.93983e-05
2.73512e-05
2.80615e-06
1.17595e-08
4.08105e-08
8.06145e-06
2.49268e-05
5.70436e-05
8.36643e-05
9.59796e-05
0.000101169
0.000102348
0.000100921
9.76632e-05
9.32064e-05
8.7649e-05
8.10768e-05
7.45973e-05
6.92406e-05
6.56773e-05
6.41591e-05
6.44936e-05
6.58826e-05
6.68438e-05
6.48141e-05
6.00283e-05
5.45864e-05
5.08624e-05
4.36396e-05
3.46321e-05
2.86779e-05
2.46968e-05
2.1935e-05
2.0587e-05
2.20177e-05
2.8492e-05
2.95222e-05
2.97652e-06
1.26348e-08
4.09936e-08
8.0651e-06
2.52113e-05
5.76001e-05
8.36226e-05
9.54205e-05
0.000100356
0.000101509
0.00010042
9.75339e-05
9.29418e-05
8.68038e-05
7.99603e-05
7.34279e-05
6.80308e-05
6.43727e-05
6.27751e-05
6.32161e-05
6.51176e-05
6.70125e-05
6.61778e-05
6.27929e-05
5.84324e-05
5.49863e-05
4.72383e-05
3.75676e-05
3.09041e-05
2.58955e-05
2.22398e-05
2.03907e-05
2.18226e-05
2.93982e-05
2.91384e-05
3.17875e-06
1.3249e-08
4.10486e-08
8.10102e-06
2.54848e-05
5.7927e-05
8.33947e-05
9.50781e-05
0.000100061
0.000101214
9.97174e-05
9.61985e-05
9.12878e-05
8.54639e-05
7.91789e-05
7.29694e-05
6.75294e-05
6.35351e-05
6.14687e-05
6.15205e-05
6.33836e-05
6.58075e-05
6.59136e-05
6.37943e-05
6.17268e-05
5.58959e-05
4.62509e-05
3.77568e-05
3.1273e-05
2.62989e-05
2.27299e-05
2.13134e-05
2.3843e-05
3.31539e-05
2.77403e-05
3.28011e-06
1.36778e-08
4.0854e-08
8.07564e-06
2.53867e-05
5.77868e-05
8.31598e-05
9.44327e-05
9.88516e-05
9.95266e-05
9.79256e-05
9.48738e-05
9.05577e-05
8.51252e-05
7.89572e-05
7.27061e-05
6.71394e-05
6.28774e-05
6.03485e-05
5.97846e-05
6.10757e-05
6.33034e-05
6.40339e-05
6.29907e-05
6.1065e-05
5.48113e-05
4.55472e-05
3.71485e-05
3.0605e-05
2.6056e-05
2.32576e-05
2.27341e-05
2.63214e-05
3.59521e-05
2.6194e-05
3.39456e-06
1.41587e-08
4.03315e-08
7.99862e-06
2.53532e-05
5.78589e-05
8.27071e-05
9.35564e-05
9.78765e-05
9.86578e-05
9.72512e-05
9.42553e-05
8.9906e-05
8.4417e-05
7.82231e-05
7.19603e-05
6.63303e-05
6.19308e-05
5.9156e-05
5.8198e-05
5.90008e-05
6.08068e-05
6.1557e-05
6.10957e-05
6.01135e-05
5.48331e-05
4.6088e-05
3.76804e-05
3.08745e-05
2.62845e-05
2.38651e-05
2.39198e-05
2.7872e-05
3.73705e-05
2.6932e-05
3.63684e-06
1.52784e-08
3.98514e-08
7.928e-06
2.51363e-05
5.73827e-05
8.21931e-05
9.3069e-05
9.74129e-05
9.82012e-05
9.67755e-05
9.37412e-05
8.93284e-05
8.37586e-05
7.74947e-05
7.12141e-05
6.56327e-05
6.12992e-05
5.8513e-05
5.7407e-05
5.79344e-05
5.94985e-05
6.03117e-05
6.02153e-05
6.01329e-05
5.55866e-05
4.7334e-05
3.94018e-05
3.24226e-05
2.72823e-05
2.44398e-05
2.44162e-05
2.87064e-05
3.86897e-05
2.82322e-05
3.82288e-06
1.63228e-08
3.92949e-08
7.8357e-06
2.49388e-05
5.70281e-05
8.18298e-05
9.27718e-05
9.71532e-05
9.7929e-05
9.64549e-05
9.3362e-05
8.89086e-05
8.33267e-05
7.70566e-05
7.07497e-05
6.51336e-05
6.07913e-05
5.80167e-05
5.68542e-05
5.72494e-05
5.87963e-05
5.99401e-05
6.03784e-05
6.08665e-05
5.65894e-05
4.84854e-05
4.08722e-05
3.3975e-05
2.84629e-05
2.50638e-05
2.47547e-05
2.93308e-05
4.02517e-05
2.8429e-05
4.03947e-06
1.71423e-08
3.87992e-08
7.77076e-06
2.48296e-05
5.66462e-05
8.11542e-05
9.20332e-05
9.64135e-05
9.72432e-05
9.58575e-05
9.28715e-05
8.8497e-05
8.2918e-05
7.65512e-05
7.00709e-05
6.42745e-05
5.98353e-05
5.71103e-05
5.6109e-05
5.65474e-05
5.78934e-05
5.96215e-05
6.17026e-05
6.11019e-05
5.55546e-05
4.82293e-05
4.08883e-05
3.42446e-05
2.90007e-05
2.58322e-05
2.59541e-05
3.15824e-05
4.32218e-05
2.80757e-05
4.17172e-06
1.77302e-08
3.80372e-08
7.66908e-06
2.45907e-05
5.61123e-05
8.05579e-05
9.15106e-05
9.59561e-05
9.68486e-05
9.55055e-05
9.25414e-05
8.81652e-05
8.25546e-05
7.61015e-05
6.94514e-05
6.34045e-05
5.86776e-05
5.57094e-05
5.45994e-05
5.51003e-05
5.66221e-05
5.85275e-05
6.06307e-05
5.96651e-05
5.45973e-05
4.78893e-05
4.04906e-05
3.39255e-05
2.9146e-05
2.67148e-05
2.76491e-05
3.39488e-05
4.48464e-05
2.82458e-05
4.34389e-06
1.85214e-08
3.73062e-08
7.56734e-06
2.43623e-05
5.57552e-05
8.02367e-05
9.12557e-05
9.57515e-05
9.66737e-05
9.5339e-05
9.2359e-05
8.79413e-05
8.22624e-05
7.57102e-05
6.89309e-05
6.27318e-05
5.78116e-05
5.4625e-05
5.33554e-05
5.38191e-05
5.53491e-05
5.69807e-05
5.91808e-05
5.875e-05
5.42519e-05
4.83604e-05
4.13719e-05
3.47234e-05
2.98343e-05
2.75405e-05
2.8744e-05
3.50496e-05
4.5708e-05
2.92387e-05
4.54307e-06
1.9747e-08
3.6422e-08
7.44585e-06
2.40926e-05
5.5191e-05
7.95958e-05
9.06845e-05
9.52641e-05
9.62735e-05
9.50298e-05
9.21476e-05
8.78268e-05
8.22175e-05
7.56777e-05
6.88158e-05
6.24018e-05
5.72248e-05
5.37999e-05
5.22937e-05
5.25919e-05
5.40311e-05
5.54852e-05
5.81658e-05
5.83439e-05
5.44091e-05
4.97513e-05
4.35776e-05
3.68713e-05
3.13551e-05
2.83797e-05
2.90727e-05
3.52569e-05
4.65858e-05
3.09715e-05
4.74726e-06
2.08561e-08
3.55973e-08
7.33663e-06
2.38723e-05
5.47963e-05
7.91213e-05
9.02385e-05
9.49062e-05
9.6037e-05
9.49404e-05
9.22075e-05
8.80029e-05
8.24267e-05
7.57993e-05
6.87553e-05
6.2157e-05
5.68007e-05
5.31991e-05
5.15497e-05
5.16575e-05
5.28573e-05
5.40871e-05
5.66935e-05
5.6903e-05
5.34793e-05
4.99543e-05
4.48984e-05
3.86368e-05
3.28006e-05
2.92675e-05
2.97216e-05
3.63427e-05
4.85384e-05
3.08911e-05
4.95738e-06
2.15224e-08
3.48678e-08
7.22392e-06
2.37346e-05
5.46298e-05
7.89575e-05
9.01387e-05
9.49317e-05
9.61711e-05
9.5135e-05
9.23943e-05
8.81161e-05
8.24072e-05
7.5606e-05
6.83797e-05
6.1631e-05
5.61937e-05
5.25675e-05
5.09124e-05
5.10852e-05
5.23792e-05
5.35251e-05
5.55063e-05
5.51469e-05
5.18243e-05
4.86761e-05
4.44104e-05
3.90323e-05
3.37364e-05
3.04811e-05
3.15058e-05
3.93886e-05
5.15929e-05
3.0563e-05
5.15832e-06
2.24946e-08
3.43222e-08
7.12885e-06
2.36063e-05
5.45053e-05
7.87024e-05
8.98772e-05
9.47571e-05
9.61139e-05
9.51988e-05
9.25532e-05
8.83056e-05
8.25118e-05
7.54791e-05
6.79097e-05
6.08316e-05
5.52263e-05
5.16435e-05
5.01833e-05
5.06386e-05
5.22256e-05
5.35553e-05
5.49047e-05
5.37745e-05
5.00929e-05
4.65991e-05
4.26206e-05
3.83452e-05
3.43911e-05
3.23224e-05
3.45801e-05
4.36842e-05
5.41182e-05
3.00781e-05
5.28526e-06
2.30535e-08
3.36627e-08
7.03451e-06
2.35768e-05
5.43655e-05
7.83237e-05
8.9537e-05
9.45577e-05
9.60596e-05
9.5241e-05
9.26215e-05
8.83117e-05
8.23391e-05
7.49971e-05
6.70115e-05
5.94941e-05
5.36043e-05
5.00319e-05
4.88682e-05
4.98122e-05
5.21705e-05
5.48192e-05
5.50602e-05
5.24069e-05
4.89831e-05
4.51011e-05
4.11062e-05
3.75135e-05
3.4937e-05
3.44781e-05
3.80415e-05
4.72255e-05
5.55961e-05
3.02547e-05
5.46491e-06
2.39429e-08
3.31339e-08
6.96846e-06
2.3661e-05
5.45621e-05
7.82594e-05
8.93881e-05
9.44451e-05
9.60045e-05
9.5197e-05
9.25251e-05
8.81253e-05
8.20776e-05
7.46174e-05
6.63761e-05
5.84822e-05
5.21538e-05
4.82747e-05
4.71621e-05
4.8549e-05
5.16269e-05
5.50021e-05
5.5419e-05
5.27563e-05
4.92355e-05
4.51018e-05
4.10315e-05
3.76391e-05
3.57027e-05
3.62111e-05
4.04782e-05
4.9193e-05
5.67696e-05
3.10935e-05
5.6907e-06
2.51665e-08
3.25046e-08
6.8973e-06
2.37585e-05
5.46049e-05
7.79569e-05
8.90154e-05
9.40918e-05
9.56763e-05
9.48587e-05
9.21717e-05
8.78119e-05
8.19168e-05
7.4778e-05
6.68083e-05
5.87182e-05
5.1696e-05
4.70533e-05
4.5372e-05
4.66717e-05
5.01325e-05
5.44509e-05
5.58588e-05
5.39046e-05
5.08682e-05
4.66466e-05
4.21779e-05
3.85257e-05
3.64587e-05
3.6872e-05
4.11696e-05
5.03602e-05
5.82252e-05
3.24751e-05
5.91798e-06
2.65047e-08
3.1842e-08
6.83493e-06
2.37481e-05
5.45083e-05
7.76245e-05
8.86125e-05
9.36869e-05
9.52725e-05
9.44453e-05
9.17964e-05
8.76058e-05
8.20711e-05
7.54229e-05
6.79129e-05
6.00065e-05
5.25539e-05
4.67342e-05
4.38963e-05
4.43412e-05
4.7508e-05
5.19858e-05
5.44046e-05
5.39702e-05
5.21526e-05
4.84934e-05
4.38756e-05
3.96397e-05
3.70795e-05
3.73418e-05
4.19611e-05
5.20299e-05
6.02218e-05
3.23175e-05
6.08767e-06
2.74805e-08
3.12326e-08
6.77651e-06
2.36564e-05
5.43426e-05
7.73703e-05
8.82825e-05
9.32585e-05
9.46996e-05
9.37102e-05
9.09615e-05
8.68784e-05
8.18073e-05
7.59925e-05
6.94053e-05
6.2003e-05
5.43118e-05
4.759e-05
4.31559e-05
4.20868e-05
4.42343e-05
4.80816e-05
5.11535e-05
5.21945e-05
5.12615e-05
4.84892e-05
4.45044e-05
4.05612e-05
3.81797e-05
3.88815e-05
4.44721e-05
5.55584e-05
6.2096e-05
3.23555e-05
6.19632e-06
2.81909e-08
3.07444e-08
6.71432e-06
2.34894e-05
5.42315e-05
7.72216e-05
8.79524e-05
9.26771e-05
9.37436e-05
9.23929e-05
8.93986e-05
8.53531e-05
8.076e-05
7.59511e-05
7.07242e-05
6.45269e-05
5.71905e-05
4.9654e-05
4.37046e-05
4.07108e-05
4.10168e-05
4.37159e-05
4.6884e-05
4.90331e-05
4.92269e-05
4.73808e-05
4.43757e-05
4.13357e-05
3.97092e-05
4.12054e-05
4.75894e-05
5.84408e-05
6.31974e-05
3.21219e-05
6.30163e-06
2.89263e-08
3.02292e-08
6.60592e-06
2.31348e-05
5.42553e-05
7.74167e-05
8.76391e-05
9.18944e-05
9.25476e-05
9.07071e-05
8.73121e-05
8.31384e-05
7.89876e-05
7.52255e-05
7.15735e-05
6.71348e-05
6.10582e-05
5.35219e-05
4.61335e-05
4.09526e-05
3.89903e-05
4.00063e-05
4.27994e-05
4.55087e-05
4.67677e-05
4.61959e-05
4.43472e-05
4.23306e-05
4.1537e-05
4.36969e-05
5.04946e-05
6.08897e-05
6.44116e-05
3.24382e-05
6.50459e-06
2.98193e-08
2.97178e-08
6.48698e-06
2.28932e-05
5.38389e-05
7.6952e-05
8.70545e-05
9.07783e-05
9.06266e-05
8.82184e-05
8.43318e-05
7.99767e-05
7.62139e-05
7.35162e-05
7.15068e-05
6.90262e-05
6.47851e-05
5.82203e-05
5.0375e-05
4.33359e-05
3.89411e-05
3.80198e-05
3.96714e-05
4.22303e-05
4.41806e-05
4.45868e-05
4.38622e-05
4.29716e-05
4.32469e-05
4.62039e-05
5.32996e-05
6.30717e-05
6.54988e-05
3.30899e-05
6.71284e-06
3.08565e-08
2.93971e-08
6.37645e-06
2.26832e-05
5.40722e-05
7.6866e-05
8.64806e-05
8.96328e-05
8.86959e-05
8.54666e-05
8.07939e-05
7.61462e-05
7.27572e-05
7.12036e-05
7.08893e-05
7.03533e-05
6.80072e-05
6.28445e-05
5.54007e-05
4.75555e-05
4.14087e-05
3.84874e-05
3.82345e-05
3.95586e-05
4.16273e-05
4.28453e-05
4.31074e-05
4.32844e-05
4.45409e-05
4.83973e-05
5.59036e-05
6.50814e-05
6.65755e-05
3.39082e-05
6.92811e-06
3.20382e-08
2.92615e-08
6.26157e-06
2.28242e-05
5.50462e-05
7.71214e-05
8.55203e-05
8.80625e-05
8.64482e-05
8.20961e-05
7.67327e-05
7.21526e-05
6.95929e-05
6.92919e-05
7.05515e-05
7.18911e-05
7.12554e-05
6.73887e-05
6.06638e-05
5.27879e-05
4.5804e-05
4.14075e-05
3.89748e-05
3.85707e-05
3.98922e-05
4.13192e-05
4.22704e-05
4.32486e-05
4.5308e-05
4.97289e-05
5.74652e-05
6.64605e-05
6.76411e-05
3.47744e-05
7.11041e-06
3.31176e-08
2.89747e-08
6.21662e-06
2.35631e-05
5.59953e-05
7.69493e-05
8.52198e-05
8.67347e-05
8.3491e-05
7.78533e-05
7.20675e-05
6.8045e-05
6.67825e-05
6.81546e-05
7.10273e-05
7.35984e-05
7.39454e-05
7.10051e-05
6.50223e-05
5.76171e-05
5.05936e-05
4.51695e-05
4.10478e-05
3.89157e-05
3.9366e-05
4.0662e-05
4.17978e-05
4.31073e-05
4.55827e-05
5.03878e-05
5.83911e-05
6.74702e-05
6.85356e-05
3.55161e-05
7.25023e-06
3.39016e-08
2.84865e-08
6.17487e-06
2.35631e-05
5.61603e-05
7.6968e-05
8.38475e-05
8.37628e-05
7.98546e-05
7.41695e-05
6.87819e-05
6.53571e-05
6.47891e-05
6.70087e-05
7.09228e-05
7.45685e-05
7.57626e-05
7.33043e-05
6.78748e-05
6.12691e-05
5.45598e-05
4.84397e-05
4.3468e-05
4.0457e-05
3.96956e-05
4.03425e-05
4.14789e-05
4.29265e-05
4.55139e-05
5.05264e-05
5.8782e-05
6.81219e-05
6.92077e-05
3.55182e-05
7.30343e-06
3.45867e-08
2.76549e-08
6.06885e-06
2.39708e-05
5.69279e-05
7.57625e-05
8.14828e-05
8.11622e-05
7.75006e-05
7.23671e-05
6.73883e-05
6.39442e-05
6.30338e-05
6.49916e-05
6.91075e-05
7.34441e-05
7.54736e-05
7.37191e-05
6.88654e-05
6.3196e-05
5.6552e-05
4.98912e-05
4.49759e-05
4.19197e-05
4.06689e-05
4.07365e-05
4.14795e-05
4.28991e-05
4.57024e-05
5.10862e-05
5.99046e-05
6.97319e-05
7.01281e-05
3.4849e-05
7.38408e-06
3.54478e-08
2.65704e-08
5.8353e-06
2.43008e-05
5.6521e-05
7.4376e-05
8.02859e-05
8.06389e-05
7.76631e-05
7.27949e-05
6.73535e-05
6.27507e-05
6.04065e-05
6.11821e-05
6.48773e-05
6.986e-05
7.32913e-05