/*--------------------------------*- C++ -*----------------------------------*\
  =========                 |
  \\      /  F ield         | OpenFOAM: The Open Source CFD Toolbox
   \\    /   O peration     | Website:  https://openfoam.org
    \\  /    A nd           | Version:  11
     \\/     M anipulation  |
\*---------------------------------------------------------------------------*/
FoamFile
{
    format      ascii;
    class       volScalarField;
    location    "800";
    object      k;
}
// * * * * * * * * * * * * * * * * * * * * * * * * * * * * * * * * * * * * * //

dimensions      [0 2 -2 0 0 0 0];

internalField   nonuniform List<scalar> 
78750
(
1.12056e-05
0.000235026
0.000567354
0.000626592
0.000649628
0.000675119
0.000709168
0.000744531
0.000776801
0.000804952
0.000828607
0.000848762
0.00086532
0.000878207
0.000887899
0.000894571
0.000898913
0.000901052
0.000901753
0.000900555
0.000900593
0.000900217
0.000896474
0.000896527
0.000897315
0.000900164
0.000904677
0.000914401
0.000927601
0.000948567
0.00098322
0.00103353
0.00102283
0.000642744
4.23811e-05
2.85201e-06
7.70111e-05
0.00026983
0.000358452
0.000438172
0.000510797
0.000571597
0.000620223
0.000658844
0.000689428
0.000713136
0.000732504
0.000745732
0.000754571
0.000758985
0.000759113
0.000757608
0.000753222
0.000746745
0.000738111
0.000727169
0.000713457
0.000696122
0.000676958
0.000657635
0.000640391
0.000625121
0.000614117
0.0006143
0.000620933
0.000651863
0.000705032
0.000699047
0.000414687
2.20577e-05
2.21205e-06
6.54981e-05
0.000331985
0.000437712
0.000555082
0.000651724
0.000722118
0.000773673
0.000811377
0.000837889
0.00085464
0.000861708
0.000862573
0.00085961
0.000851602
0.000839801
0.0008245
0.000806107
0.000784896
0.000761054
0.000736093
0.000710853
0.000685838
0.000660429
0.000635519
0.000612174
0.00058947
0.000568874
0.000553043
0.000544354
0.000546288
0.000555972
0.000529225
0.000231633
1.01701e-05
3.04009e-06
8.74566e-05
0.000334664
0.000535171
0.000660792
0.000737012
0.000786373
0.00082027
0.000843706
0.000859402
0.000868966
0.000873387
0.000873134
0.000868766
0.000859683
0.000846761
0.000830154
0.000810082
0.000787067
0.000761789
0.000734463
0.000704726
0.000672985
0.000641187
0.000610244
0.000581011
0.000552763
0.000527409
0.000507313
0.000493764
0.000488839
0.000485072
0.000436863
0.000157091
6.21838e-06
4.77298e-06
0.000136264
0.000434308
0.000621902
0.000732338
0.000802302
0.000851315
0.000887284
0.000913258
0.000930615
0.00094019
0.000942595
0.000939412
0.000929694
0.000914585
0.000894376
0.000869825
0.000841705
0.000810519
0.000776792
0.000741308
0.000705086
0.00066826
0.000631435
0.000595902
0.000562392
0.000530194
0.000501221
0.000477342
0.000458659
0.000445447
0.000426867
0.000352091
0.000112379
4.27129e-06
5.85045e-06
0.000164922
0.000481152
0.000668332
0.000773465
0.000839179
0.000884716
0.00091693
0.000938765
0.000951945
0.000957626
0.000956874
0.000949969
0.000937688
0.000920526
0.00089897
0.000873481
0.000844518
0.000812564
0.00077813
0.000741879
0.000704764
0.000667366
0.000629938
0.000593522
0.000558214
0.000523348
0.000490759
0.000462678
0.000438401
0.000417888
0.000393787
0.000330222
9.5287e-05
3.59368e-06
7.25258e-06
0.00020245
0.000534184
0.00072159
0.000825349
0.000890604
0.000936289
0.000968909
0.000991143
0.00100445
0.0010098
0.0010083
0.00100001
0.000985631
0.000965693
0.000940734
0.000911306
0.000878051
0.00084184
0.000803558
0.00076384
0.00072303
0.00068145
0.000640194
0.000600157
0.000562007
0.000524948
0.000490648
0.000460344
0.000432613
0.000407648
0.000384653
0.000362847
9.5239e-05
3.49268e-06
7.99011e-06
0.000221565
0.000564451
0.000750338
0.000851753
0.000915734
0.000960437
0.000991829
0.00101246
0.00102383
0.00102699
0.00102341
0.00101283
0.000996277
0.000974404
0.000947858
0.0009173
0.000883335
0.000846508
0.000807454
0.000766714
0.000724847
0.000682571
0.000640894
0.000600206
0.000560504
0.000521444
0.000485293
0.000453496
0.000424259
0.000397866
0.00037714
0.000370377
9.32338e-05
3.32876e-06
9.36725e-06
0.000257197
0.000608694
0.000795551
0.000896884
0.000961012
0.00100592
0.0010374
0.00105793
0.00106894
0.00107141
0.00106678
0.00105463
0.00103613
0.00101197
0.000982922
0.000949802
0.000913593
0.00087521
0.000835234
0.000794024
0.000751915
0.000709061
0.000665618
0.000621813
0.000578324
0.000535245
0.000495057
0.000459036
0.000425428
0.000394441
0.00036492
0.000311363
8.81844e-05
3.21558e-06
9.97456e-06
0.000272533
0.000631129
0.000817704
0.00091853
0.000982551
0.00102731
0.00105837
0.00107812
0.00108798
0.00108896
0.00108266
0.00106866
0.0010483
0.00102241
0.000991861
0.000957541
0.000920386
0.000881368
0.000841123
0.000800145
0.000759022
0.00071806
0.000677058
0.000635028
0.000590652
0.000545927
0.000505558
0.000467489
0.000430167
0.000396869
0.000369081
0.000336095
8.8171e-05
3.21075e-06
1.1378e-05
0.000307866
0.000671562
0.000858232
0.000958986
0.00102335
0.00106851
0.00109977
0.00111942
0.00112878
0.00112886
0.00112123
0.00110546
0.00108295
0.00105458
0.00102132
0.00098421
0.000944337
0.000902815
0.000860603
0.000818539
0.000777327
0.000737136
0.000697676
0.000657933
0.000616342
0.000573897
0.00053229
0.000490526
0.000448417
0.000407218
0.000371539
0.000344351
8.81976e-05
3.21235e-06
1.1922e-05
0.000321255
0.000690097
0.000877256
0.000978413
0.00104333
0.00108895
0.00112048
0.00114015
0.00114925
0.00114882
0.00113999
0.00112314
0.00109932
0.0010694
0.00103443
0.000995525
0.000953929
0.000910912
0.000867507
0.000824528
0.000782703
0.000742688
0.000704202
0.000665934
0.000626393
0.000586317
0.000546182
0.000503558
0.000459783
0.000417782
0.000378512
0.000344904
8.82691e-05
3.12255e-06
1.33365e-05
0.000356066
0.000727496
0.000914045
0.00101512
0.00108054
0.00112676
0.00115881
0.00117883
0.00118808
0.00118756
0.00117825
0.00116036
0.00113491
0.00110283
0.00106532
0.00102344
0.000978454
0.000931751
0.00088466
0.000838591
0.000794684
0.000753169
0.000713734
0.000674946
0.000635201
0.000594891
0.000553607
0.000508573
0.00046136
0.000419612
0.000382628
0.000351515
8.9244e-05
3.16535e-06
1.38125e-05
0.000367514
0.000743008
0.000930921
0.00103315
0.00109969
0.00114688
0.0011797
0.00120035
0.00121009
0.00120994
0.00120113
0.00118364
0.0011585
0.00112641
0.00108818
0.0010449
0.000998196
0.000949373
0.000899857
0.000851322
0.000805485
0.00076335
0.000724434
0.00068743
0.000651755
0.000616319
0.000577544
0.000531916
0.000479918
0.000429046
0.000384836
0.000320141
9.01216e-05
3.2999e-06
1.51695e-05
0.000400144
0.000777126
0.000964642
0.00106709
0.00113434
0.00118234
0.00121592
0.00123724
0.00124756
0.00124785
0.0012393
0.00122191
0.00119666
0.00116418
0.00112513
0.00108029
0.0010306
0.000977418
0.000922504
0.000868332
0.000816933
0.000770032
0.000728276
0.000691089
0.000657988
0.00062687
0.000593543
0.000553983
0.000505984
0.000451391
0.000400076
0.000346637
9.31832e-05
3.31682e-06
1.55775e-05
0.000409768
0.00079084
0.0009804
0.0010845
0.0011532
0.00120249
0.00123727
0.00125972
0.00127112
0.00127246
0.00126477
0.00124836
0.00122401
0.00119231
0.00115382
0.00110924
0.00105939
0.00100531
0.00094809
0.000889391
0.000832106
0.000779257
0.000732127
0.000690911
0.00065569
0.000624015
0.000591701
0.000554986
0.00051196
0.000461581
0.000406677
0.000347941
9.43959e-05
3.33545e-06
1.67312e-05
0.000437014
0.000819916
0.00100986
0.00111474
0.00118453
0.00123503
0.00127108
0.00129484
0.00130759
0.0013103
0.00130383
0.00128866
0.00126539
0.0012345
0.00119648
0.00115188
0.0011014
0.00104593
0.000986431
0.000924295
0.000861473
0.000800378
0.000744636
0.000697042
0.00065782
0.00062402
0.000591166
0.000554632
0.000511829
0.000463501
0.000412779
0.00035318
0.000100157
3.60496e-06
1.68956e-05
0.000440357
0.000829003
0.00102223
0.00112957
0.00120144
0.00125389
0.00129192
0.00131771
0.00133256
0.00133741
0.0013331
0.0013202
0.00129916
0.00127039
0.00123428
0.00119124
0.00114184
0.00108678
0.00102685
0.00096327
0.000897852
0.000832584
0.00076974
0.000712898
0.000668729
0.000634275
0.000602924
0.000568826
0.000527044
0.000475395
0.000416294
0.000333047
0.000100714
3.6799e-06
1.77886e-05
0.00045881
0.000850511
0.00104571
0.00115487
0.00122844
0.0012827
0.00132274
0.00135073
0.00136792
0.00137522
0.0013735
0.00136321
0.00134475
0.00131841
0.00128446
0.00124319
0.00119494
0.00114023
0.00107964
0.00101416
0.000945332
0.000874972
0.000804831
0.000737312
0.000678335
0.000633024
0.00060207
0.000574634
0.000542575
0.000496955
0.00043421
0.00035097
0.000104866
3.74381e-06
1.81614e-05
0.000465168
0.000859745
0.00105766
0.00116919
0.00124497
0.00130143
0.00134374
0.00137416
0.00139393
0.00140404
0.00140521
0.00139798
0.00138269
0.00135954
0.00132871
0.00129035
0.00124468
0.00119204
0.00113285
0.00106786
0.000998281
0.00092539
0.000849795
0.000772434
0.000699156
0.000637886
0.000593474
0.00056277
0.000536455
0.000497676
0.000436339
0.000348328
0.000107026
3.80626e-06
1.88386e-05
0.000479791
0.000876532
0.00107851
0.00119294
0.00127076
0.00132915
0.00137355
0.00140629
0.0014286
0.00144142
0.00144546
0.0014413
0.00142921
0.00140934
0.00138176
0.00134652
0.00130375
0.00125371
0.00119676
0.00113366
0.00106562
0.000993828
0.000918069
0.00083693
0.000752473
0.000673093
0.000607493
0.000564075
0.000533674
0.000497252
0.000439141
0.000352493
0.000113523
4.2181e-06
1.91785e-05
0.000489991
0.000886174
0.00109132
0.00120863
0.00128882
0.00134944
0.00139608
0.00143113
0.00145587
0.00147123
0.00147797
0.00147671
0.00146774
0.00145107
0.00142671
0.00139459
0.00135472
0.00130727
0.0012525
0.00119108
0.00112427
0.00105347
0.00097973
0.000902026
0.000817748
0.0007314
0.000652846
0.000586788
0.000540025
0.000501658
0.000448034
0.00036409
0.000118924
4.44554e-06
2.00106e-05
0.000513149
0.000906878
0.00111535
0.0012354
0.00131739
0.00137953
0.00142769
0.00146434
0.00149081
0.00150798
0.00151667
0.00151744
0.00151115
0.00149691
0.001475
0.00144527
0.00140738
0.00136118
0.00130712
0.00124611
0.00117937
0.00110824
0.00103383
0.000955192
0.000869586
0.000780792
0.000697419
0.000623237
0.000563827
0.000513936
0.000453575
0.000361554
0.000120701
4.39644e-06
2.10944e-05
0.000538558
0.000927108
0.0011371
0.00125916
0.00134259
0.00140597
0.00145526
0.00149296
0.00152048
0.00153875
0.00154866
0.00155086
0.00154625
0.00153388
0.00151382
0.00148577
0.00144975
0.00140582
0.00135398
0.00129453
0.00122827
0.00115643
0.00107981
0.000996843
0.000904667
0.000808021
0.000717366
0.000639205
0.000578243
0.000524563
0.000457178
0.000357822
0.000121952
4.4219e-06
2.32374e-05
0.000586193
0.000964291
0.00117117
0.00129309
0.00137706
0.00144084
0.00149033
0.00152814
0.00155577
0.00157427
0.00158471
0.00158791
0.0015848
0.00157452
0.00155687
0.00153242
0.00150051
0.00146053
0.00141192
0.00135459
0.00128932
0.00121776
0.00114052
0.00105487
0.000957341
0.000852207
0.000749807
0.000657663
0.000586563
0.000529375
0.00046102
0.000360019
0.000127618
4.80049e-06
2.54574e-05
0.000633998
0.000998304
0.00120072
0.00132137
0.00140519
0.00146915
0.00151875
0.00155644
0.0015837
0.00160168
0.00161162
0.0016147
0.00161241
0.00160471
0.00159276
0.00157544
0.0015512
0.00151805
0.00147456
0.00142024
0.00135532
0.00128101
0.0012004
0.00111191
0.00101344
0.000909339
0.000806139
0.00070572
0.000620204
0.00055166
0.000477901
0.000367223
0.000132992
5.02445e-06
2.78734e-05
0.000685141
0.00103807
0.00123557
0.0013539
0.00143656
0.00149959
0.00154812
0.00158441
0.00160988
0.00162575
0.00163331
0.00163374
0.00162929
0.0016202
0.00160791
0.0015924
0.00157263
0.00154636
0.00151177
0.00146764
0.00141254
0.00134433
0.00126107
0.00116259
0.00105238
0.000942486
0.000839106
0.000741762
0.000652639
0.000574975
0.00048996
0.000368419
0.000135175
4.93846e-06
2.94252e-05
0.00071839
0.0010672
0.00126001
0.00137564
0.0014571
0.00151943
0.00156723
0.0016025
0.00162649
0.00164059
0.00164616
0.00164487
0.00163775
0.00162637
0.00161399
0.00160196
0.00158815
0.00156881
0.00154202
0.00150567
0.00145745
0.00139371
0.00131121
0.00120893
0.00108812
0.000958166
0.000841192
0.000741981
0.000659182
0.0005831
0.000492762
0.000366532
0.00013579
4.94581e-06
3.12633e-05
0.000756703
0.00109807
0.00128466
0.00139691
0.00147668
0.00153788
0.00158456
0.00161845
0.00164056
0.00165214
0.00165431
0.00164945
0.00163845
0.00162591
0.00161344
0.00160232
0.00159268
0.00158293
0.00156636
0.00153885
0.00149874
0.00144149
0.00136388
0.00126387
0.00114129
0.000999597
0.000852215
0.000740108
0.000659112
0.000585945
0.000494035
0.000366815
0.000140734
5.11332e-06
3.22687e-05
0.000777103
0.00111367
0.00129659
0.00140713
0.00148641
0.00154755
0.00159416
0.00162759
0.0016485
0.00165803
0.00165786
0.00165052
0.00163755
0.00162278
0.00160936
0.00159961
0.0015927
0.00158627
0.00157693
0.00156269
0.0015368
0.00149451
0.00143377
0.00135148
0.00124539
0.00111233
0.000949452
0.000784091
0.000669278
0.000592191
0.000502855
0.000376003
0.000146334
5.43673e-06
3.32325e-05
0.000796728
0.00112916
0.00130889
0.00141778
0.00149643
0.00155731
0.00160368
0.00163662
0.00165673
0.00166505
0.00166323
0.00165277
0.00163648
0.00161726
0.00159965
0.00158758
0.00158213
0.0015801
0.00157617
0.00156592
0.0015468
0.00151625
0.00147023
0.00140591
0.00132046
0.00120907
0.00106205
0.000886687
0.000727059
0.000615874
0.000515869
0.000386491
0.000155488
5.69909e-06
3.34713e-05
0.000801467
0.00113354
0.00131331
0.00142246
0.00150159
0.00156304
0.00161002
0.0016436
0.00166417
0.00167241
0.0016696
0.00165736
0.00163798
0.00161551
0.00159277
0.00157444
0.00156478
0.00156264
0.00156235
0.00155795
0.00154445
0.00151824
0.00147746
0.00142061
0.00134534
0.00124625
0.00111471
0.000952277
0.00078437
0.000647587
0.000529967
0.000393151
0.000158921
5.81637e-06
3.37392e-05
0.000806627
0.00114072
0.00132055
0.00142974
0.00150919
0.00157114
0.00161857
0.00165229
0.00167242
0.00167963
0.00167534
0.0016608
0.00163816
0.00161
0.00158004
0.00155583
0.00153973
0.00153466
0.00153564
0.00153537
0.00152748
0.0015067
0.00147034
0.00141688
0.00134368
0.00124539
0.00111736
0.000966
0.000808976
0.000668962
0.000542368
0.000399221
0.000162909
5.95472e-06
3.38286e-05
0.000807091
0.00114266
0.00132353
0.00143321
0.00151337
0.00157621
0.00162483
0.00166002
0.00168172
0.00169022
0.00168613
0.00166999
0.00164344
0.00160961
0.00157344
0.00153774
0.00151218
0.00150274
0.00150226
0.00150552
0.00150452
0.00149244
0.00146481
0.00141837
0.00134934
0.00125254
0.00112623
0.000977637
0.000825952
0.000688808
0.000560073
0.000414352
0.000174101
6.42675e-06
3.41425e-05
0.000805361
0.0011436
0.00132627
0.00143816
0.00151943
0.00158346
0.00163371
0.00167105
0.00169526
0.00170588
0.00170287
0.0016868
0.00165869
0.00162059
0.00157616
0.00153187
0.00149327
0.00146382
0.00145473
0.00145926
0.00146543
0.00146498
0.00145157
0.00142016
0.00136668
0.0012851
0.00116989
0.00102445
0.000866281
0.000719206
0.00058242
0.000432363
0.000185312
6.91283e-06
3.41379e-05
0.000798689
0.00114075
0.00132641
0.00144007
0.0015232
0.00158928
0.00164236
0.00168348
0.00171249
0.00172918
0.00173334
0.00172482
0.001703
0.00166813
0.00162059
0.00156278
0.00150245
0.0014511
0.00141393
0.00139573
0.00139959
0.0014067
0.00140672
0.00139272
0.00135718
0.00129269
0.00119865
0.0010699
0.000913862
0.000755622
0.000607295
0.000449468
0.000195107
7.19932e-06
3.39922e-05
0.000795924
0.0011373
0.00132598
0.00144236
0.00152799
0.0015965
0.00165206
0.0016965
0.00172983
0.00175167
0.00176166
0.00175973
0.00174519
0.00171808
0.00167793
0.00162451
0.00155852
0.00148441
0.00141349
0.00136333
0.00133501
0.00132988
0.00133353
0.00133053
0.00131255
0.00127204
0.0011971
0.00108611
0.000943999
0.000786689
0.000632308
0.000467233
0.000204591
7.54221e-06
3.36714e-05
0.000794158
0.00113502
0.00132731
0.00144655
0.00153448
0.00160541
0.00166366
0.00171107
0.0017478
0.00177396
0.00178974
0.00179453
0.00178722
0.00176628
0.00173112
0.0016832
0.0016226
0.00155049
0.00146931
0.00138687
0.00131938
0.00128218
0.00126823
0.00126316
0.00125288
0.00122539
0.00117065
0.00108113
0.000955359
0.000807042
0.000653824
0.000486069
0.000216654
8.17575e-06
3.32435e-05
0.000793303
0.00113413
0.00132983
0.00145224
0.00154257
0.00161556
0.00167562
0.00172452
0.00176315
0.0017921
0.00181209
0.00182306
0.00182388
0.00181314
0.0017871
0.00174396
0.00168468
0.00161396
0.00153338
0.00144592
0.0013586
0.00128432
0.00123973
0.00121998
0.00120932
0.00119133
0.00115183
0.00107995
0.000970437
0.000832607
0.000681519
0.000511869
0.000232868
9.01482e-06
3.29597e-05
0.000793586
0.00113518
0.0013352
0.00146027
0.00155205
0.00162595
0.00168687
0.0017369
0.001777
0.00180781
0.00183034
0.00184496
0.00185101
0.00184696
0.0018294
0.00179706
0.00174819
0.00168186
0.00160129
0.00151007
0.00141362
0.00132126
0.00124814
0.00120567
0.00118513
0.00117017
0.00114231
0.00108517
0.00098889
0.000858068
0.000706864
0.000533584
0.000247013
9.42301e-06
3.32471e-05
0.00080017
0.00114072
0.00134206
0.00146874
0.00156197
0.00163704
0.00169874
0.00174917
0.00178945
0.00182045
0.00184371
0.00186031
0.00187044
0.00187316
0.00186807
0.00185126
0.00181778
0.00176376
0.00168759
0.00159137
0.00148255
0.00137289
0.00127741
0.00120965
0.00117272
0.00115511
0.0011346
0.00108676
0.00100444
0.000880578
0.000730402
0.000553501
0.000261443
9.84062e-06
3.36522e-05
0.000808611
0.00114742
0.00134937
0.00147729
0.0015717
0.00164758
0.00170969
0.00176016
0.0018002
0.00183076
0.00185371
0.00187063
0.00188265
0.00189057
0.00189278
0.00188589
0.00186477
0.0018259
0.00176531
0.00168089
0.00157284
0.00144809
0.00132548
0.00122685
0.00116486
0.00113151
0.00111308
0.00108077
0.0010068
0.000890937
0.000744907
0.000567244
0.000271709
1.02309e-05
3.40128e-05
0.000815901
0.0011531
0.00135478
0.00148315
0.00157829
0.00165489
0.00171751
0.00176814
0.00180789
0.00183764
0.00185931
0.00187446
0.00188502
0.00189199
0.00189546
0.0018946
0.00188568
0.00186263
0.00181919
0.0017537
0.0016623
0.0015456
0.00141489
0.00128936
0.00118726
0.00113159
0.00109793
0.00106452
0.00100489
0.000900862
0.00076267
0.000587647
0.000288465
1.11032e-05
3.42742e-05
0.000820783
0.00115629
0.00135662
0.00148485
0.00158054
0.00165782
0.00172098
0.00177183
0.0018114
0.0018405
0.00186091
0.00187518
0.00188508
0.0018916
0.00189531
0.00189524
0.00188971
0.0018749
0.00184952
0.00180553
0.00173721
0.00164395
0.0015297
0.00140385
0.00127662
0.00116856
0.0011042
0.0010659
0.0010066
0.000914042
0.000782369
0.000609128
0.000305281
1.19465e-05
3.4411e-05
0.000822664
0.00115712
0.0013568
0.00148496
0.00158094
0.0016586
0.0017221
0.00177314
0.00181265
0.00184139
0.00186103
0.00187301
0.00187942
0.0018827
0.00188446
0.00188512
0.00188307
0.00187434
0.00185468
0.00182162
0.00177318
0.00170447
0.00161618
0.00151115
0.00139159
0.0012709
0.00116921
0.00108885
0.00102059
0.000928959
0.000800536
0.000628434
0.00032655
1.25393e-05
3.44522e-05
0.000822605
0.00115613
0.00135398
0.00148172
0.00157816
0.00165657
0.00172076
0.00177225
0.00181199
0.00184086
0.00186059
0.00187282
0.00187874
0.00188026
0.00187914
0.00187624
0.00187169
0.00186319
0.00184682
0.00181881
0.00177698
0.0017202
0.00164846
0.00156031
0.00145722
0.00134706
0.0012407
0.00114377
0.00105295
0.000948496
0.00081732
0.000643484
0.000337998
1.29846e-05
3.42736e-05
0.000818828
0.00114962
0.00134699
0.0014747
0.00157144
0.00165055
0.00171587
0.00176883
0.00181006
0.00184015
0.00186058
0.001873
0.00187869
0.0018796
0.00187714
0.00187223
0.00186467
0.00185363
0.00183666
0.00181022
0.00177008
0.00171532
0.00164619
0.00156265
0.00146877
0.00137176
0.00127665
0.00118199
0.00108282
0.00096832
0.000833057
0.000655976
0.00034918
1.33999e-05
3.3837e-05
0.000809882
0.00114202
0.00133998
0.00146836
0.00156596
0.00164592
0.00171191
0.00176533
0.0018069
0.00183744
0.0018585
0.00187158
0.00187815
0.00187955
0.00187725
0.0018722
0.00186423
0.00185272
0.00183539
0.00180922
0.00177081
0.00171812
0.00165017
0.0015672
0.00147346
0.0013786
0.00128969
0.00120253
0.00110685
0.000991767
0.000856272
0.000680044
0.000373634
1.44204e-05
3.34272e-05
0.000801276
0.00113333
0.0013317
0.00146033
0.00155804
0.00163812
0.00170437
0.00175824
0.00180042
0.0018317
0.00185361
0.00186765
0.0018753
0.00187801
0.00187711
0.00187335
0.00186703
0.00185687
0.0018407
0.00181667
0.00178177
0.00173403
0.00167161
0.00159264
0.00149946
0.0014008
0.00130661
0.00121778
0.00112482
0.00101313
0.000879916
0.000704634
0.000392997
1.54303e-05
3.29648e-05
0.000791659
0.00112472
0.00132395
0.00145322
0.00155144
0.00163193
0.00169851
0.00175259
0.00179488
0.00182623
0.00184821
0.00186241
0.00187044
0.00187393
0.00187436
0.00187264
0.00186822
0.00186012
0.00184692
0.00182574
0.00179465
0.00175246
0.00169752
0.00162711
0.00154094
0.00144371
0.00134334
0.00124496
0.00114618
0.00103386
0.000902563
0.000728695
0.000415522
1.62218e-05
3.25361e-05
0.000782361
0.00111591
0.00131544
0.00144506
0.00154362
0.00162441
0.00169125
0.00174554
0.00178794
0.00181929
0.00184111
0.00185498
0.00186251
0.00186556
0.0018661
0.00186551
0.00186365
0.00185859
0.00184747
0.00182848
0.00179968
0.00176049
0.00170964
0.00164587
0.00156922
0.00148099
0.00138377
0.00128028
0.0011726
0.00105439
0.000922282
0.000747579
0.000429906
1.68077e-05
3.19011e-05
0.00076794
0.00110345
0.00130456
0.00143524
0.00153456
0.00161596
0.00168328
0.00173795
0.00178063
0.00181217
0.00183407
0.00184781
0.00185487
0.00185709
0.00185663
0.0018555
0.00185441
0.0018519
0.00184451
0.00182802
0.00180049
0.00176116
0.00170986
0.00164669
0.00157359
0.00149333
0.00140572
0.00130773
0.00119898
0.00107731
0.000943047
0.00076632
0.000446823
1.7519e-05
3.12884e-05
0.000755125
0.00109196
0.00129416
0.00142557
0.00152545
0.00160735
0.00167516
0.00173035
0.00177357
0.0018057
0.00182825
0.00184263
0.0018502
0.00185256
0.00185178
0.00185009
0.00184914
0.00184867
0.00184568
0.0018355
0.00181312
0.00177599
0.00172301
0.00165599
0.0015792
0.00149734
0.001413
0.00132181
0.00121856
0.00109924
0.000965713
0.000789458
0.000467857
1.8677e-05
3.05393e-05
0.000739885
0.00107918
0.00128346
0.0014163
0.00151717
0.00159981
0.00166818
0.00172376
0.00176726
0.00179956
0.00182223
0.00183677
0.00184453
0.00184696
0.0018458
0.00184304
0.00184063
0.00184031
0.00184114
0.00183871
0.00182743
0.00180203
0.00175882
0.00169656
0.00161837
0.00153038
0.00143901
0.00134461
0.00124212
0.00112429
0.000991239
0.000815119
0.000488376
1.97537e-05
2.9841e-05
0.000725936
0.00106743
0.00127338
0.00140748
0.0015094
0.00159295
0.00166211
0.00171836
0.00176237
0.00179503
0.00181798
0.00183284
0.00184114
0.00184435
0.001844
0.00184151
0.00183843
0.00183462
0.00183126
0.00182882
0.00182321
0.0018083
0.00177917
0.00173082
0.0016622
0.00157652
0.00148008
0.00137767
0.00126924
0.00114861
0.00101473
0.000837411
0.000510068
2.03744e-05
2.92404e-05
0.000712994
0.00105681
0.00126434
0.00139962
0.0015025
0.00158684
0.00165663
0.00171331
0.00175752
0.00179007
0.00181266
0.00182714
0.00183548
0.00183962
0.00184122
0.00184106
0.00183903
0.00183471
0.00182884
0.00182214
0.00181427
0.00180241
0.00178089
0.00174532
0.00169108
0.00161529
0.00152069
0.00141281
0.00129674
0.00117171
0.00103743
0.00086003
0.000531284
2.1306e-05
2.87872e-05
0.000703232
0.00104859
0.00125722
0.00139347
0.00149728
0.00158245
0.00165291
0.00171003
0.00175432
0.00178638
0.00180782
0.00182067
0.00182738
0.0018309
0.0018341
0.00183817
0.00184145
0.00184093
0.00183408
0.0018226
0.00180838
0.00179192
0.0017719
0.00174342
0.00170015
0.00163843
0.00155328
0.00144665
0.00132573
0.00119653
0.00106026
0.000879298
0.000545532
2.18817e-05
2.82394e-05
0.000691103
0.00103885
0.00124856
0.00138591
0.00149091
0.00157724
0.00164875
0.00170668
0.00175138
0.00178309
0.00180308
0.00181334
0.00181648
0.00181646
0.00181832
0.00182556
0.00183669
0.00184538
0.00184614
0.00183581
0.00181647
0.0017923
0.00176492
0.0017334
0.0016949
0.001642
0.00156848
0.00147016
0.00135161
0.00122162
0.00108321
0.000899256
0.000562607
2.26482e-05
2.78054e-05
0.000681397
0.00103053
0.00124016
0.00137784
0.00148367
0.00157114
0.00164399
0.00170333
0.00174927
0.00178169
0.00180162
0.0018095
0.00180752
0.00180073
0.00179678
0.00180183
0.00181826
0.00183937
0.00185348
0.00185361
0.00183768
0.00180808
0.00177167
0.00173455
0.00169412
0.00164264
0.00157601
0.00148659
0.00137464
0.00124763
0.00110955
0.000924989
0.000586958
2.38204e-05
2.72676e-05
0.000669214
0.00102012
0.00123002
0.00136827
0.00147503
0.00156375
0.00163819
0.00169943
0.00174735
0.0017814
0.00180178
0.00180946
0.00180576
0.00179289
0.00177658
0.00177199
0.00178461
0.00181364
0.0018453
0.00186492
0.00186496
0.00184463
0.00180619
0.0017566
0.00170355
0.00164941
0.00158618
0.00150437
0.00139947
0.00127592
0.00113816
0.000952592
0.000609219
2.50799e-05
2.67125e-05
0.000656732
0.00100904
0.00121895
0.00135752
0.0014651
0.0015552
0.0016317
0.00169569
0.0017469
0.00178419
0.00180706
0.00181517
0.00180924
0.00179235
0.00176934
0.0017468
0.00174518
0.00176712
0.00180665
0.0018448
0.00186658
0.00186742
0.00184583
0.0018024
0.001745
0.00168066
0.00161008
0.00152655
0.00142351
0.00130234
0.00116649
0.000981113
0.000635911
2.60187e-05
2.62062e-05
0.000645402
0.00099764
0.00120732
0.00134602
0.00145416
0.00154541
0.00162386
0.00169082
0.00174613
0.00178851
0.0018168
0.0018295
0.00182543
0.00180512
0.00177295
0.00173895
0.00171282
0.0017154
0.00174894
0.00179646
0.00183861
0.00185982
0.00185469
0.00182828
0.00178035
0.00171624
0.00164059
0.00155176
0.00144624
0.00132558
0.00119039
0.00100308
0.000651961
2.67239e-05
2.57999e-05
0.00063604
0.00098687
0.00119618
0.00133483
0.00144326
0.00153532
0.00161533
0.00168492
0.00174425
0.00179222
0.00182723
0.0018473
0.00184998
0.00183368
0.0017992
0.00175249
0.00170806
0.00168232
0.0016889
0.00172931
0.00177993
0.00182059
0.0018393
0.00182776
0.0017932
0.00173734
0.00166346
0.00157286
0.00146603
0.00134575
0.00121067
0.00102181
0.000668608
2.74208e-05
2.53727e-05
0.000627914
0.000976615
0.00118606
0.00132471
0.00143325
0.00152579
0.00160688
0.0016785
0.00174125
0.00179436
0.00183758
0.00186711
0.00187992
0.00187318
0.00184505
0.00179665
0.00173571
0.0016812
0.00165629
0.00167015
0.00171418
0.00176401
0.00179992
0.00181112
0.00179229
0.0017484
0.0016809
0.00159208
0.00148556
0.0013657
0.00123079
0.00104149
0.000686952
2.82596e-05
2.49408e-05
0.000618582
0.000966764
0.00117669
0.00131569
0.00142432
0.00151695
0.0015985
0.00167136
0.00173666
0.00179413
0.00184373
0.00188294
0.00190676
0.00191168
0.00189539
0.00185515
0.00179326
0.00172018
0.00165942
0.00163697
0.00165787
0.00170438
0.0017506
0.00177839
0.00177893
0.00174843
0.00169207
0.0016087
0.0015044
0.0013855
0.00125088
0.00106183
0.000707339
2.92224e-05
2.46962e-05
0.000613638
0.000959881
0.0011686
0.00130677
0.00141496
0.00150722
0.00158862
0.0016619
0.00172876
0.00178961
0.00184399
0.00189107
0.00192705
0.00194473
0.00194233
0.0019163
0.00186512
0.00179187
0.0017111
0.00165029
0.00163359
0.00165509
0.00169806
0.0017367
0.00175386
0.00174138
0.00169526
0.00162021
0.00152096
0.00140468
0.00127099
0.00108225
0.000725766
3.03305e-05
2.45757e-05
0.000610731
0.000956647
0.00116353
0.00130023
0.00140749
0.00149886
0.00157919
0.00165175
0.00171893
0.00178182
0.00184033
0.00189171
0.00193351
0.00196447
0.00197685
0.00196614
0.00193111
0.00187067
0.00179088
0.00171047
0.00165613
0.00164769
0.00166698
0.0016992
0.00172395
0.00172491
0.00169356
0.00162795
0.00153503
0.00142226
0.0012901
0.00110197
0.00074298
3.13335e-05
2.43223e-05
0.000603779
0.000950851
0.0011547
0.00128942
0.00139514
0.00148492
0.001564
0.00163567
0.00170239
0.00176597
0.00182728
0.00188434
0.00193261
0.00196775
0.00198848
0.00199415
0.00197785
0.0019347
0.00186866
0.00178929
0.00171626
0.00167115
0.00166851
0.00168676
0.00170573
0.00171082
0.00168993
0.00163475
0.00154964
0.00144162
0.0013116
0.00112379
0.000761942
3.21011e-05
2.39014e-05
0.000593646
0.000939814
0.0011406
0.00127275
0.00137699
0.00146612
0.00154435
0.00161425
0.00167829
0.00173907
0.00179879
0.00185698
0.00191022
0.00195395
0.0019842
0.00199802
0.00199438
0.00197236
0.00192721
0.00186221
0.00178976
0.00172906
0.00169618
0.00169341
0.00170593
0.00170972
0.00169076
0.00164165
0.00156216
0.00145776
0.00132932
0.00114143
0.000779275
3.27529e-05
2.31665e-05
0.00057652
0.000924741
0.00112304
0.00125387
0.00135779
0.00144629
0.00152311
0.00159062
0.00165111
0.0017074
0.00176246
0.00181712
0.00186929
0.0019153
0.00195182
0.00197632
0.0019861
0.0019787
0.00195249
0.00190711
0.00184709
0.0017866
0.00174193
0.00172053
0.00171534
0.00171262
0.0016947
0.00164875
0.00157306
0.0014721
0.00134623
0.00115924
0.000797118
3.35688e-05
2.22604e-05
0.00054815
0.000904367
0.00110253
0.00123264
0.00133555
0.00142286
0.0014984
0.00156436
0.0016226
0.00167549
0.00172604
0.00177596
0.00182432
0.00186819
0.0019047
0.00193225
0.00194963
0.00195507
0.00194635
0.00192084
0.00188031
0.00183106
0.00178608
0.00175524
0.00173842
0.00172603
0.00170318
0.00165668
0.0015829
0.00148472
0.00136065
0.00117348
0.000810314
3.41317e-05
2.1198e-05
0.000524876
0.000883056
0.00108074
0.00120996
0.00131233
0.00139954
0.00147549
0.00154222
0.00160115
0.00165392
0.00170279
0.00174926
0.00179305
0.00183203
0.00186376
0.00188809
0.00190417
0.00191242
0.00191273
0.00190307
0.00188006
0.00184897
0.00181491
0.00178558
0.0017639
0.00174457
0.00171609
0.00166673
0.00159273
0.0014957
0.0013725
0.00118541
0.000823568
3.47255e-05
2.02227e-05
0.000507895
0.000867392
0.00106556
0.00119435
0.00129588
0.00138241
0.00145802
0.00152504
0.00158524
0.00164017
0.00169156
0.0017398
0.00178363
0.00182077
0.00184918
0.00186707
0.00187621
0.00187877
0.00187716
0.00187211
0.00186288
0.00184571
0.00182347
0.00180146
0.00178101
0.00175917
0.00172704
0.00167523
0.00160097
0.00150505
0.00138285
0.0011955
0.000833678
3.51318e-05
1.96669e-05
0.000494865
0.000856855
0.001055
0.00118276
0.00128265
0.00136725
0.00144106
0.00150678
0.00156659
0.0016227
0.00167739
0.00173063
0.0017795
0.00181967
0.00184839
0.00186491
0.00187001
0.00186587
0.00185582
0.00184503
0.00183671
0.00182955
0.00182007
0.00180583
0.00179044
0.0017685
0.00173493
0.00168209
0.00160799
0.00151296
0.00139169
0.00120553
0.000845583
3.57088e-05
1.896e-05
0.000478903
0.000842585
0.00104161
0.00116909
0.00126791
0.00135095
0.00142284
0.00148659
0.00154502
0.00160111
0.00165847
0.00171792
0.00177581
0.00182547
0.0018609
0.00187978
0.00188331
0.00187429
0.00185651