/*--------------------------------*- C++ -*----------------------------------*\
  =========                 |
  \\      /  F ield         | OpenFOAM: The Open Source CFD Toolbox
   \\    /   O peration     | Website:  https://openfoam.org
    \\  /    A nd           | Version:  11
     \\/     M anipulation  |
\*---------------------------------------------------------------------------*/
FoamFile
{
    format      ascii;
    class       volScalarField;
    location    "800";
    object      nut;
}
// * * * * * * * * * * * * * * * * * * * * * * * * * * * * * * * * * * * * * //

dimensions      [0 2 -1 0 0 0 0];

internalField   nonuniform List<scalar> 
78750
(
1.09725e-08
2.06506e-06
2.15451e-05
2.28993e-05
2.31611e-05
2.44082e-05
2.46255e-05
2.46387e-05
2.4796e-05
2.50644e-05
2.55003e-05
2.59582e-05
2.64956e-05
2.71339e-05
2.7774e-05
2.84506e-05
2.9168e-05
2.99106e-05
3.05133e-05
3.14534e-05
3.11077e-05
3.24221e-05
3.49394e-05
3.48251e-05
3.47882e-05
3.50419e-05
3.49771e-05
3.44709e-05
3.34914e-05
3.19833e-05
3.09003e-05
3.09008e-05
2.75689e-05
5.59125e-06
3.95174e-08
2.79451e-09
6.77867e-07
7.70384e-06
8.97961e-06
1.14487e-05
1.62881e-05
2.29271e-05
2.90901e-05
3.30406e-05
3.52814e-05
3.78621e-05
4.00746e-05
4.1252e-05
4.35039e-05
4.52972e-05
4.71469e-05
4.91806e-05
5.08738e-05
5.46462e-05
5.83368e-05
5.92135e-05
5.72756e-05
5.49477e-05
5.31647e-05
5.31127e-05
5.20684e-05
3.72827e-05
3.63659e-05
3.9649e-05
3.16457e-05
2.6769e-05
2.46028e-05
2.14214e-05
3.59583e-06
2.0457e-08
2.16759e-09
5.76634e-07
5.73712e-06
9.48544e-06
1.7946e-05
3.25512e-05
4.54559e-05
5.32886e-05
5.83815e-05
6.13293e-05
6.34711e-05
6.48344e-05
6.60437e-05
6.6738e-05
6.7119e-05
6.7219e-05
6.69901e-05
6.55054e-05
5.93264e-05
5.52231e-05
5.76344e-05
5.83934e-05
5.48367e-05
5.07684e-05
4.92171e-05
4.43903e-05
3.30635e-05
3.34155e-05
3.23038e-05
2.3097e-05
1.87939e-05
1.65529e-05
1.50283e-05
1.99811e-06
9.41444e-09
2.97868e-09
7.69459e-07
6.47173e-06
1.75176e-05
3.53852e-05
5.0901e-05
6.02251e-05
6.6622e-05
7.08558e-05
7.3189e-05
7.42686e-05
7.42631e-05
7.35193e-05
7.22193e-05
7.03579e-05
6.80431e-05
6.53348e-05
6.26349e-05
5.97747e-05
5.55838e-05
4.82347e-05
4.42194e-05
4.26547e-05
4.00075e-05
3.84034e-05
3.42086e-05
2.68249e-05
2.75655e-05
2.64325e-05
1.88547e-05
1.46617e-05
1.23566e-05
1.13517e-05
1.34878e-06
5.74857e-09
4.67634e-09
1.19858e-06
8.38851e-06
2.12588e-05
3.98608e-05
5.54644e-05
6.44726e-05
6.93256e-05
7.19328e-05
7.33188e-05
7.34775e-05
7.27004e-05
7.11475e-05
6.88323e-05
6.59612e-05
6.2673e-05
5.91122e-05
5.52114e-05
5.11887e-05
4.80161e-05
4.58283e-05
4.34076e-05
4.02105e-05
3.79215e-05
3.6856e-05
3.35659e-05
2.76501e-05
2.79587e-05
2.49817e-05
1.68706e-05
1.21117e-05
9.60197e-06
8.40503e-06
9.61728e-07
3.94541e-09
5.73169e-09
1.45022e-06
1.02032e-05
2.77254e-05
5.01669e-05
6.45877e-05
7.21449e-05
7.62427e-05
7.80682e-05
7.83168e-05
7.74248e-05
7.5693e-05
7.31915e-05
7.00947e-05
6.65683e-05
6.27764e-05
5.88875e-05
5.46993e-05
5.04419e-05
4.6497e-05
4.34584e-05
4.11031e-05
3.88458e-05
3.69273e-05
3.56049e-05
3.23588e-05
2.72153e-05
2.72426e-05
2.3644e-05
1.56226e-05
1.08084e-05
8.2336e-06
7.48548e-06
8.13121e-07
3.31739e-09
7.10513e-09
1.77999e-06
1.10988e-05
2.97557e-05
5.26445e-05
6.64304e-05
7.30849e-05
7.61554e-05
7.69778e-05
7.64432e-05
7.471e-05
7.21228e-05
6.89114e-05
6.53088e-05
6.15267e-05
5.77423e-05
5.4051e-05
5.09749e-05
4.85947e-05
4.64624e-05
4.41162e-05
4.15015e-05
3.91054e-05
3.721e-05
3.58489e-05
3.28384e-05
2.81594e-05
2.80234e-05
2.33667e-05
1.48361e-05
9.91043e-06
7.68101e-06
8.16122e-06
8.11333e-07
3.22302e-09
7.82744e-09
1.94774e-06
1.22554e-05
3.3388e-05
5.73197e-05
7.0418e-05
7.65359e-05
7.92335e-05
7.96983e-05
7.87587e-05
7.65723e-05
7.35604e-05
6.99597e-05
6.60163e-05
6.19602e-05
5.79908e-05
5.41669e-05
5.04937e-05
4.72648e-05
4.44907e-05
4.21018e-05
4.01965e-05
3.84895e-05
3.69349e-05
3.48802e-05
3.15362e-05
2.76384e-05
2.75872e-05
2.3106e-05
1.46239e-05
9.48925e-06
7.27905e-06
8.30917e-06
7.9285e-07
3.07067e-09
9.17634e-09
2.26076e-06
1.29175e-05
3.49731e-05
5.90269e-05
7.14461e-05
7.6935e-05
7.90001e-05
7.86465e-05
7.68816e-05
7.42049e-05
7.09075e-05
6.71155e-05
6.31097e-05
5.9078e-05
5.51823e-05
5.17348e-05
4.88901e-05
4.64113e-05
4.42047e-05
4.23618e-05
4.07307e-05
3.93795e-05
3.8e-05
3.58183e-05
3.22828e-05
2.83735e-05
2.78902e-05
2.27185e-05
1.4148e-05
9.04122e-06
6.88979e-06
7.10129e-06
7.48699e-07
2.96535e-09
9.77105e-09
2.3953e-06
1.36719e-05
3.70231e-05
6.13339e-05
7.34376e-05
7.86296e-05
8.03692e-05
7.98318e-05
7.79779e-05
7.51425e-05
7.16377e-05
6.76456e-05
6.34805e-05
5.93181e-05
5.53222e-05
5.16671e-05
4.83873e-05
4.53697e-05
4.23686e-05
3.99184e-05
3.83907e-05
3.74804e-05
3.65106e-05
3.43105e-05
3.12395e-05
3.15458e-05
3.00663e-05
2.13262e-05
1.37434e-05
9.03334e-06
7.08698e-06
8.00246e-06
7.47904e-07
2.96039e-09
1.11457e-08
2.70562e-06
1.43222e-05
3.85198e-05
6.25829e-05
7.39648e-05
7.86549e-05
7.99888e-05
7.92769e-05
7.71366e-05
7.39931e-05
7.03591e-05
6.64387e-05
6.23609e-05
5.82456e-05
5.42052e-05
5.03236e-05
4.68174e-05
4.38782e-05
4.16214e-05
3.99754e-05
3.88345e-05
3.79547e-05
3.70729e-05
3.50599e-05
3.2286e-05
3.31534e-05
2.97358e-05
2.08346e-05
1.39079e-05
9.08088e-06
7.03649e-06
8.22922e-06
7.47851e-07
2.96164e-09
1.16783e-08
2.82305e-06
1.48917e-05
3.98552e-05
6.38665e-05
7.50028e-05
7.94876e-05
8.06104e-05
7.97467e-05
7.76365e-05
7.46756e-05
7.11289e-05
6.72031e-05
6.31023e-05
5.89518e-05
5.48723e-05
5.09847e-05
4.74036e-05
4.4214e-05
4.14065e-05
3.89497e-05
3.72749e-05
3.64629e-05
3.55395e-05
3.35504e-05
3.13841e-05
3.23492e-05
2.85773e-05
1.97442e-05
1.30775e-05
8.79677e-06
7.19083e-06
9.01732e-06
7.4737e-07
2.87802e-09
1.30637e-08
3.12874e-06
1.55637e-05
4.13136e-05
6.49074e-05
7.5401e-05
7.95247e-05
8.0432e-05
7.94425e-05
7.72419e-05
7.42529e-05
7.07814e-05
6.69839e-05
6.29798e-05
5.8839e-05
5.46935e-05
5.06412e-05
4.67732e-05
4.32705e-05
4.03008e-05
3.79899e-05
3.6165e-05
3.49409e-05
3.37792e-05
3.19723e-05
3.04375e-05
3.13551e-05
2.73994e-05
1.88636e-05
1.23976e-05
8.5281e-06
7.3561e-06
9.97359e-06
7.5475e-07
2.91689e-09
1.35297e-08
3.22913e-06
1.60014e-05
4.22896e-05
6.57543e-05
7.60371e-05
8.00168e-05
8.08184e-05
7.97754e-05
7.75818e-05
7.46425e-05
7.12566e-05
6.75734e-05
6.37482e-05
5.98494e-05
5.58828e-05
5.18536e-05
4.79042e-05
4.41704e-05
4.07175e-05
3.76935e-05
3.53318e-05
3.34407e-05
3.12349e-05
2.95833e-05
3.15673e-05
3.14208e-05
2.52284e-05
1.87567e-05
1.27935e-05
8.78171e-06
7.49845e-06
9.34946e-06
7.62067e-07
3.0408e-09
1.48588e-08
3.51564e-06
1.66441e-05
4.35732e-05
6.66161e-05
7.64657e-05
8.03042e-05
8.11299e-05
8.02032e-05
7.81599e-05
7.53602e-05
7.20685e-05
6.84136e-05
6.45544e-05
6.06111e-05
5.66681e-05
5.27484e-05
4.88228e-05
4.48977e-05
4.10697e-05
3.75764e-05
3.4602e-05
3.22068e-05
3.0081e-05
2.87441e-05
3.06427e-05
2.96457e-05
2.37286e-05
1.81135e-05
1.27402e-05
8.96975e-06
7.7822e-06
1.06196e-05
7.87458e-07
3.05599e-09
1.52582e-08
3.60001e-06
1.70069e-05
4.42465e-05
6.71642e-05
7.70405e-05
8.09563e-05
8.18859e-05
8.1084e-05
7.91918e-05
7.65623e-05
7.34341e-05
6.9931e-05
6.61596e-05
6.21945e-05
5.81174e-05
5.40294e-05
5.00309e-05
4.61725e-05
4.23824e-05
3.85765e-05
3.49325e-05
3.1764e-05
2.90153e-05
2.72647e-05
2.83699e-05
2.70026e-05
2.16219e-05
1.64708e-05
1.18679e-05
8.89049e-06
8.28426e-06
1.22794e-05
7.96916e-07
3.0726e-09
1.63881e-08
3.83923e-06
1.75569e-05
4.50071e-05
6.77115e-05
7.75038e-05
8.15061e-05
8.26116e-05
8.20234e-05
8.03504e-05
7.79147e-05
7.49261e-05
7.15168e-05
6.7792e-05
6.38276e-05
5.96837e-05
5.54238e-05
5.1141e-05
4.69609e-05
4.29478e-05
3.90523e-05
3.51614e-05
3.12808e-05
2.78226e-05
2.55364e-05
2.60392e-05
2.47546e-05
2.02271e-05
1.58471e-05
1.16851e-05
8.95139e-06
8.62011e-06
1.31466e-05
8.45239e-07
3.32071e-09
1.6549e-08
3.86854e-06
1.77837e-05
4.52159e-05
6.78535e-05
7.78321e-05
8.20622e-05
8.33793e-05
8.29929e-05
8.15317e-05
7.9312e-05
7.65275e-05
7.32983e-05
6.97073e-05
6.58215e-05
6.17037e-05
5.74233e-05
5.30658e-05
4.87372e-05
4.45058e-05
4.0399e-05
3.63888e-05
3.23607e-05
2.8204e-05
2.48066e-05
2.45753e-05
2.29969e-05
1.89856e-05
1.55448e-05
1.19014e-05
9.12725e-06
8.5409e-06
1.21851e-05
8.49903e-07
3.38971e-09
1.74237e-08
4.03065e-06
1.79831e-05
4.4983e-05
6.7669e-05
7.81144e-05
8.26492e-05
8.42416e-05
8.41426e-05
8.29774e-05
8.10357e-05
7.84936e-05
7.54522e-05
7.1989e-05
6.81704e-05
6.40623e-05
5.97384e-05
5.52925e-05
5.08371e-05
4.64463e-05
4.21841e-05
3.80775e-05
3.39784e-05
2.92801e-05
2.48079e-05
2.3099e-05
2.05276e-05
1.67922e-05
1.39848e-05
1.12615e-05
9.20318e-06
9.09927e-06
1.42406e-05
8.84493e-07
3.44817e-09
1.77888e-08
4.08656e-06
1.81323e-05
4.52063e-05
6.79601e-05
7.8468e-05
8.32567e-05
8.51767e-05
8.53828e-05
8.44693e-05
8.27236e-05
8.0313e-05
7.73566e-05
7.39427e-05
7.01489e-05
6.60483e-05
6.17167e-05
5.72485e-05
5.27529e-05
4.83167e-05
4.4037e-05
3.99342e-05
3.57307e-05
3.03122e-05
2.4805e-05
2.17843e-05
1.87276e-05
1.49104e-05
1.21958e-05
1.02956e-05
9.16693e-06
9.89018e-06
1.61255e-05
9.02012e-07
3.50527e-09
1.84521e-08
4.2152e-06
1.80275e-05
4.43492e-05
6.75965e-05
7.88175e-05
8.39905e-05
8.61554e-05
8.65445e-05
8.57906e-05
8.41846e-05
8.1872e-05
7.89625e-05
7.55492e-05
7.17216e-05
6.75675e-05
6.31763e-05
5.87094e-05
5.42407e-05
4.99006e-05
4.57953e-05
4.19618e-05
3.78101e-05
3.21285e-05
2.57937e-05
2.08921e-05
1.82054e-05
1.47571e-05
1.15911e-05
9.92124e-06
9.05731e-06
9.95172e-06
1.61229e-05
9.56707e-07
3.88462e-09
1.87852e-08
4.305e-06
1.78849e-05
4.38135e-05
6.74572e-05
7.90681e-05
8.45207e-05
8.6915e-05
8.74789e-05
8.6851e-05
8.53271e-05
8.30586e-05
8.01641e-05
7.67542e-05
7.29365e-05
6.88308e-05
6.45275e-05
6.05635e-05
5.63885e-05
5.18773e-05
4.77342e-05
4.38435e-05
3.98738e-05
3.5305e-05
2.83129e-05
2.12643e-05
1.8467e-05
1.52433e-05
1.16053e-05
9.73894e-06
8.72957e-06
9.49907e-06
1.55818e-05
1.00221e-06
4.09408e-09
1.96004e-08
4.5086e-06
1.76576e-05
4.30101e-05
6.72172e-05
7.94312e-05
8.51931e-05
8.78144e-05
8.85177e-05
8.80001e-05
8.65562e-05
8.43292e-05
8.14244e-05
7.7996e-05
7.41934e-05
7.00903e-05
6.55469e-05
6.03247e-05
5.61009e-05
5.29133e-05
4.99449e-05
4.69327e-05
4.35527e-05
3.90293e-05
3.12454e-05
2.26656e-05
1.88491e-05
1.4869e-05
1.106e-05
9.34252e-06
8.53573e-06
9.57016e-06
1.63024e-05
1.01688e-06
4.04857e-09
2.0662e-08
4.73185e-06
1.75819e-05
4.24946e-05
6.72159e-05
7.99645e-05
8.5962e-05
8.87732e-05
8.95778e-05
8.90853e-05
8.7584e-05
8.5203e-05
8.20163e-05
7.81909e-05
7.3542e-05
6.82428e-05
6.36936e-05
6.06895e-05
5.788e-05
5.51788e-05
5.24111e-05
4.94939e-05
4.61153e-05
4.13104e-05
3.29753e-05
2.38347e-05
1.90385e-05
1.42329e-05
1.03518e-05
8.86235e-06
8.59216e-06
1.02709e-05
1.75854e-05
1.02687e-06
4.07164e-09
2.27607e-08
5.15009e-06
1.79882e-05
4.29614e-05
6.76413e-05
8.05372e-05
8.67589e-05
8.97055e-05
9.04309e-05
8.96811e-05
8.77507e-05
8.47956e-05
8.08118e-05
7.58107e-05
7.06063e-05
6.63677e-05
6.32022e-05
6.07005e-05
5.87763e-05
5.70186e-05
5.50521e-05
5.27915e-05
4.98218e-05
4.3642e-05
3.41518e-05
2.49692e-05
2.02599e-05
1.49698e-05
1.03897e-05
8.61317e-06
8.45273e-06
1.03599e-05
1.72866e-05
1.07458e-06
4.42035e-09
2.49346e-08
5.56955e-06
1.83933e-05
4.37954e-05
6.82922e-05
8.06986e-05
8.67114e-05
8.96193e-05
9.02366e-05
8.92738e-05
8.69324e-05
8.36188e-05
7.8898e-05
7.33681e-05
6.86006e-05
6.45595e-05
6.17354e-05
6.03817e-05
6.03577e-05
6.07923e-05
6.04796e-05
5.83095e-05
5.37549e-05
4.65536e-05
3.68366e-05
2.71832e-05
2.25234e-05
1.65267e-05
1.11634e-05
9.08545e-06
8.53025e-06
9.8194e-06
1.61822e-05
1.11982e-06
4.62657e-09
2.73004e-08
5.97729e-06
1.9045e-05
4.50683e-05
6.92692e-05
8.11863e-05
8.69026e-05
8.95246e-05
8.98005e-05
8.84818e-05
8.57074e-05
8.0904e-05
7.58077e-05
7.11577e-05
6.55768e-05
6.08421e-05
5.83041e-05
5.82998e-05
6.04389e-05
6.37347e-05
6.63383e-05
6.55238e-05
6.00471e-05
5.14311e-05
4.06266e-05
2.98647e-05
2.40265e-05
1.72411e-05
1.16338e-05
9.11613e-06
8.38568e-06
9.97413e-06
1.73956e-05
1.13791e-06
4.54702e-09
2.88194e-08
6.1412e-06
1.97456e-05
4.67757e-05
7.05225e-05
8.17889e-05
8.70986e-05
8.91731e-05
8.9076e-05
8.6933e-05
8.27545e-05
7.85697e-05
7.35151e-05
6.72138e-05
6.14593e-05
5.74724e-05
5.59025e-05
5.70555e-05
6.07764e-05
6.61657e-05
7.06634e-05
6.99471e-05
6.34392e-05
5.4938e-05
4.47959e-05
3.3451e-05
2.43278e-05
1.61633e-05
1.10557e-05
8.97435e-06
8.71305e-06
1.1e-05
1.86066e-05
1.14209e-06
4.55296e-09
3.06188e-08
6.37865e-06
2.05884e-05
4.85806e-05
7.17008e-05
8.21265e-05
8.66575e-05
8.78358e-05
8.66169e-05
8.39632e-05
8.06815e-05
7.57869e-05
6.96195e-05
6.33547e-05
5.80194e-05
5.45027e-05
5.35618e-05
5.55909e-05
6.04075e-05
6.65965e-05
7.07558e-05
6.87242e-05
6.33201e-05
5.70583e-05
4.86391e-05
3.87834e-05
2.67591e-05
1.63755e-05
1.10336e-05
8.95411e-06
8.84301e-06
1.12303e-05
1.82755e-05
1.18329e-06
4.70707e-09
3.16029e-08
6.51293e-06
2.1209e-05
4.99621e-05
7.24088e-05
8.19674e-05
8.56949e-05
8.62167e-05
8.48067e-05
8.20909e-05
7.82592e-05
7.28523e-05
6.68721e-05
6.08587e-05
5.57757e-05
5.24825e-05
5.16648e-05
5.38153e-05
5.88986e-05
6.57569e-05
7.08915e-05
6.9579e-05
6.48986e-05
5.95146e-05
5.21236e-05
4.40865e-05
3.14949e-05
1.92324e-05
1.20621e-05
9.10153e-06
8.87965e-06
1.13785e-05
1.84711e-05
1.23043e-06
5.00488e-09
3.25462e-08
6.64711e-06
2.17432e-05
5.11416e-05
7.29198e-05
8.1703e-05
8.48304e-05
8.49367e-05
8.32866e-05
8.03198e-05
7.62485e-05
7.13803e-05
6.58788e-05
6.02739e-05
5.51152e-05
5.12996e-05
4.9803e-05
5.1306e-05
5.61359e-05
6.33523e-05
6.94337e-05
6.94806e-05
6.60724e-05
6.14717e-05
5.41814e-05
4.66746e-05
3.47392e-05
2.26127e-05
1.43677e-05
1.00483e-05
8.90337e-06
1.07971e-05
1.89738e-05
1.30738e-06
5.24635e-09
3.27798e-08
6.67585e-06
2.18956e-05
5.13763e-05
7.25833e-05
8.08979e-05
8.37245e-05
8.37238e-05
8.20518e-05
7.92525e-05
7.5431e-05
7.09434e-05
6.59202e-05
6.04506e-05
5.50543e-05
5.04531e-05
4.79316e-05
4.86098e-05
5.26593e-05
5.95638e-05
6.64694e-05
6.83385e-05
6.66166e-05
6.3217e-05
5.60851e-05
4.70846e-05
3.43173e-05
2.27256e-05
1.5215e-05
1.08113e-05
9.5206e-06
1.22277e-05
1.94567e-05
1.33564e-06
5.35367e-09
3.3042e-08
6.73001e-06
2.21201e-05
5.15003e-05
7.23482e-05
8.03962e-05
8.31258e-05
8.32038e-05
8.16769e-05
7.90055e-05
7.54267e-05
7.10655e-05
6.61523e-05
6.06887e-05
5.50833e-05
5.01507e-05
4.6704e-05
4.58145e-05
4.85866e-05
5.45363e-05
6.09896e-05
6.38943e-05
6.38175e-05
6.20111e-05
5.69472e-05
4.62278e-05
3.30449e-05
2.22942e-05
1.5174e-05
1.13779e-05
1.05367e-05
1.3698e-05
1.89197e-05
1.36827e-06
5.48048e-09
3.31293e-08
6.74631e-06
2.21497e-05
5.14891e-05
7.23403e-05
8.04967e-05
8.33418e-05
8.34451e-05
8.1975e-05
7.95576e-05
7.61593e-05
7.20648e-05
6.70233e-05
6.1389e-05
5.56068e-05
5.0294e-05
4.62711e-05
4.42256e-05
4.46862e-05
4.79744e-05
5.38267e-05
5.96001e-05
6.21083e-05
6.04851e-05
5.57293e-05
4.58962e-05
3.3653e-05
2.32005e-05
1.58655e-05
1.19354e-05
1.11319e-05
1.43527e-05
1.9456e-05
1.46211e-06
5.91496e-09
3.34365e-08
6.77201e-06
2.21569e-05
5.08692e-05
7.17417e-05
8.0111e-05
8.30533e-05
8.32733e-05
8.1989e-05
7.97873e-05
7.66388e-05
7.27196e-05
6.81449e-05
6.28859e-05
5.70758e-05
5.12303e-05
4.61385e-05
4.27527e-05
4.18219e-05
4.38973e-05
4.82954e-05
5.35143e-05
5.72104e-05
5.84042e-05
5.44862e-05
4.48555e-05
3.43943e-05
2.49645e-05
1.75028e-05
1.29428e-05
1.16479e-05
1.46135e-05
2.05805e-05
1.55626e-06
6.36235e-09
3.34321e-08
6.77959e-06
2.19558e-05
4.99421e-05
7.07492e-05
7.95347e-05
8.28842e-05
8.33162e-05
8.20402e-05
7.96193e-05
7.67024e-05
7.32233e-05
6.94324e-05
6.51079e-05
6.01831e-05
5.46742e-05
4.88913e-05
4.36975e-05
4.02424e-05
3.9341e-05
4.14304e-05
4.60864e-05
5.10671e-05
5.45631e-05
5.13099e-05
4.25399e-05
3.34634e-05
2.5124e-05
1.83583e-05
1.38879e-05
1.25037e-05
1.57231e-05
2.08988e-05
1.63835e-06
6.62584e-09
3.32898e-08
6.77521e-06
2.16214e-05
4.92123e-05
7.03419e-05
7.95095e-05
8.28281e-05
8.3154e-05
8.18911e-05
7.985e-05
7.72564e-05
7.41722e-05
7.061e-05
6.66425e-05
6.23494e-05
5.77237e-05
5.26514e-05
4.72112e-05
4.2063e-05
3.82854e-05
3.70829e-05
3.86861e-05
4.25599e-05
4.72527e-05
4.64803e-05
3.96239e-05
3.17652e-05
2.42129e-05
1.82956e-05
1.45751e-05
1.37291e-05
1.75724e-05
2.08337e-05
1.71735e-06
6.94098e-09
3.29759e-08
6.73015e-06
2.10807e-05
4.83661e-05
6.99532e-05
7.90226e-05
8.25803e-05
8.34207e-05
8.2677e-05
8.09282e-05
7.82977e-05
7.49924e-05
7.12606e-05
6.73481e-05
6.33778e-05
5.93021e-05
5.51175e-05
5.05661e-05
4.56223e-05
4.07667e-05
3.68227e-05
3.48241e-05
3.56076e-05
3.95943e-05
4.08172e-05
3.62759e-05
3.01926e-05
2.36706e-05
1.83607e-05
1.51163e-05
1.47368e-05
1.89826e-05
2.12948e-05
1.81849e-06
7.52404e-09
3.25571e-08
6.68722e-06
2.07372e-05
4.73755e-05
6.89827e-05
7.87989e-05
8.30341e-05
8.42878e-05
8.36866e-05
8.18151e-05
7.89774e-05
7.54229e-05
7.14987e-05
6.75828e-05
6.38562e-05
6.0305e-05
5.66578e-05
5.2775e-05
4.84541e-05
4.38175e-05
3.92005e-05
3.51578e-05
3.2934e-05
3.49937e-05
3.61779e-05
3.30484e-05
2.90962e-05
2.38901e-05
1.8986e-05
1.57451e-05
1.52994e-05
1.94897e-05
2.27184e-05
1.95477e-06
8.29655e-09
3.22792e-08
6.64954e-06
2.03225e-05
4.6554e-05
6.91686e-05
7.95919e-05
8.39299e-05
8.50879e-05
8.43008e-05
8.22408e-05
7.92245e-05
7.54792e-05
7.13585e-05
6.72402e-05
6.35324e-05
6.05232e-05
5.79576e-05
5.49669e-05
5.12811e-05
4.6933e-05
4.22624e-05
3.73894e-05
3.34891e-05
3.37082e-05
3.33411e-05
3.01748e-05
2.74635e-05
2.35542e-05
1.93145e-05
1.62166e-05
1.57593e-05
2.00044e-05
2.36104e-05
2.0735e-06
8.67216e-09
3.25605e-08
6.63103e-06
2.01749e-05
4.64011e-05
6.91881e-05
7.97735e-05
8.42508e-05
8.549e-05
8.47051e-05
8.25662e-05
7.93756e-05
7.53497e-05
7.09137e-05
6.65964e-05
6.29789e-05
6.02021e-05
5.82134e-05
5.66885e-05
5.46162e-05
5.11554e-05
4.60569e-05
4.01825e-05
3.51807e-05
3.38169e-05
3.1645e-05
2.78463e-05
2.5328e-05
2.22684e-05
1.89264e-05
1.66097e-05
1.68019e-05
2.18499e-05
2.3426e-05
2.19404e-06
9.05588e-09
3.29569e-08
6.63241e-06
2.02642e-05
4.64589e-05
6.89178e-05
7.94364e-05
8.4014e-05
8.53726e-05
8.46521e-05
8.2479e-05
7.91415e-05
7.47394e-05
6.98309e-05
6.52026e-05
6.11936e-05
5.84125e-05
5.69813e-05
5.64255e-05
5.58423e-05
5.40584e-05
5.0133e-05
4.43934e-05
3.84704e-05
3.50841e-05
3.10095e-05
2.64221e-05
2.34324e-05
2.07581e-05
1.83675e-05
1.69708e-05
1.8151e-05
2.40655e-05
2.28789e-05
2.27956e-06
9.41471e-09
3.33096e-08
6.64317e-06
2.03845e-05
4.67106e-05
6.90767e-05
7.95492e-05
8.40663e-05
8.52937e-05
8.4403e-05
8.20209e-05
7.82473e-05
7.3707e-05
6.875e-05
6.36137e-05
5.93138e-05
5.6437e-05
5.5195e-05
5.52807e-05
5.58037e-05
5.53649e-05
5.25443e-05
4.76119e-05
4.21695e-05
3.82055e-05
3.25812e-05
2.64928e-05
2.29192e-05
2.02232e-05
1.81676e-05
1.73334e-05
1.90134e-05
2.50901e-05
2.34351e-05
2.42042e-06
1.02178e-08
3.35651e-08
6.64981e-06
2.06181e-05
4.72382e-05
6.93278e-05
7.95912e-05
8.39499e-05
8.49617e-05
8.3829e-05
8.11957e-05
7.75835e-05
7.2965e-05
6.75173e-05
6.21633e-05
5.77366e-05
5.47946e-05
5.35508e-05
5.38612e-05
5.50714e-05
5.59451e-05
5.43254e-05
5.03843e-05
4.58633e-05
4.26614e-05
3.65341e-05
2.89613e-05
2.39505e-05
2.06742e-05
1.84768e-05
1.74674e-05
1.88484e-05
2.45286e-05
2.51681e-05
2.56189e-06
1.09941e-08
3.36985e-08
6.65263e-06
2.08471e-05
4.77054e-05
6.9305e-05
7.91293e-05
8.32703e-05
8.43185e-05
8.34726e-05
8.10966e-05
7.73019e-05
7.2242e-05
6.66188e-05
6.12264e-05
5.67598e-05
5.37267e-05
5.24039e-05
5.27878e-05
5.44099e-05
5.60488e-05
5.54151e-05
5.2641e-05
4.90521e-05
4.62245e-05
3.9751e-05
3.15992e-05
2.59537e-05
2.17461e-05
1.87215e-05
1.72616e-05
1.85397e-05
2.5026e-05
2.50436e-05
2.74032e-06
1.15396e-08
3.37385e-08
6.6808e-06
2.10676e-05
4.7952e-05
6.91042e-05
7.88507e-05
8.30403e-05
8.40485e-05
8.28247e-05
7.99744e-05
7.59589e-05
7.11831e-05
6.6012e-05
6.08902e-05
5.63955e-05
5.30872e-05
5.13676e-05
5.14146e-05
5.29919e-05
5.50633e-05
5.5201e-05
5.34812e-05
5.18819e-05
4.71365e-05
3.90628e-05
3.19134e-05
2.64344e-05
2.22049e-05
1.91745e-05
1.79917e-05
2.01701e-05
2.81825e-05
2.39228e-05
2.83535e-06
1.19483e-08
3.35633e-08
6.65734e-06
2.09845e-05
4.78402e-05
6.89081e-05
7.83032e-05
8.20235e-05
8.26343e-05
8.13874e-05
7.89218e-05
7.54021e-05
7.09439e-05
6.58619e-05
6.0697e-05
5.60864e-05
5.25544e-05
5.04641e-05
5.0005e-05
5.10981e-05
5.29948e-05
5.36638e-05
5.285e-05
5.13302e-05
4.61459e-05
3.84025e-05
3.13893e-05
2.58973e-05
2.20453e-05
1.96589e-05
1.92253e-05
2.23374e-05
3.0702e-05
2.24883e-05
2.92775e-06
1.23295e-08
3.31356e-08
6.59469e-06
2.09581e-05
4.78942e-05
6.85261e-05
7.75856e-05
8.12419e-05
8.19627e-05
8.08611e-05
7.843e-05
7.48652e-05
7.03452e-05
6.52335e-05
6.00593e-05
5.5406e-05
5.17716e-05
4.94829e-05
4.87021e-05
4.93879e-05
5.09163e-05
5.15769e-05
5.12367e-05
5.04395e-05
4.60398e-05
3.87365e-05
3.17095e-05
2.60331e-05
2.2211e-05
2.02044e-05
2.03003e-05
2.37642e-05
3.20061e-05
2.30388e-05
3.1326e-06
1.32687e-08
3.2734e-08
6.53532e-06
2.07742e-05
4.74969e-05
6.81176e-05
7.72074e-05
8.08794e-05
8.15951e-05
8.04663e-05
7.79958e-05
7.43755e-05
6.97895e-05
6.46213e-05
5.94329e-05
5.48197e-05
5.12393e-05
4.89429e-05
4.80461e-05
4.85072e-05
4.9825e-05
5.0514e-05
5.04547e-05
5.03933e-05
4.66102e-05
3.97183e-05
3.30706e-05
2.72488e-05
2.3001e-05
2.06978e-05
2.0781e-05
2.45346e-05
3.31329e-05
2.41545e-05
3.29507e-06
1.41982e-08
3.2281e-08
6.45992e-06
2.06192e-05
4.7216e-05
6.78147e-05
7.69515e-05
8.06519e-05
8.1359e-05
8.01947e-05
7.76811e-05
7.40311e-05
6.94357e-05
6.42596e-05
5.90439e-05
5.43958e-05
5.08037e-05
4.85175e-05
4.75797e-05
4.79452e-05
4.92611e-05
5.02147e-05
5.0578e-05
5.10144e-05
4.74837e-05
4.07313e-05
3.43674e-05
2.85966e-05
2.40067e-05
2.12176e-05
2.10421e-05
2.50062e-05
3.43763e-05
2.44222e-05
3.48391e-06
1.49265e-08
3.18608e-08
6.40577e-06
2.0529e-05
4.6894e-05
6.72477e-05
7.63354e-05
8.00394e-05
8.07971e-05
7.97114e-05
7.72908e-05
7.37093e-05
6.9118e-05
6.38613e-05
5.84988e-05
5.36955e-05
5.00163e-05
4.7765e-05
4.69547e-05
4.73527e-05
4.85102e-05
4.9979e-05
5.17525e-05
5.13193e-05
4.66909e-05
4.0565e-05
3.44611e-05
2.89136e-05
2.45135e-05
2.18609e-05
2.20087e-05
2.68557e-05
3.69198e-05
2.41448e-05
3.60386e-06
1.54649e-08
3.12388e-08
6.3227e-06
2.03321e-05
4.64593e-05
6.67715e-05
7.5926e-05
7.96878e-05
8.04986e-05
7.94473e-05
7.70428e-05
7.34577e-05
6.88387e-05
6.35105e-05
5.80089e-05
5.29988e-05
4.90786e-05
4.66178e-05
4.57077e-05
4.61523e-05
4.74628e-05
4.90922e-05
5.08797e-05
5.00947e-05
4.58681e-05
4.026e-05
3.40974e-05
2.86349e-05
2.465e-05
2.2627e-05
2.34693e-05
2.89477e-05
3.84269e-05
2.42153e-05
3.74508e-06
1.61191e-08
3.06387e-08
6.23833e-06
2.01402e-05
4.61592e-05
6.65012e-05
7.57087e-05
7.95096e-05
8.03427e-05
7.92971e-05
7.68799e-05
7.32626e-05
6.85903e-05
6.31849e-05
5.75824e-05
5.24475e-05
4.83678e-05
4.57273e-05
4.46785e-05
4.50774e-05
4.6383e-05
4.77883e-05
4.96257e-05
4.92707e-05
4.55238e-05
4.05696e-05
3.47155e-05
2.91962e-05
2.51759e-05
2.33396e-05
2.44742e-05
2.9951e-05
3.9144e-05
2.4992e-05
3.92168e-06
1.7185e-08
2.9905e-08
6.13726e-06
1.99143e-05
4.56893e-05
6.59684e-05
7.52305e-05
7.90969e-05
7.99995e-05
7.9029e-05
7.66941e-05
7.31588e-05
6.85464e-05
6.31518e-05
5.74778e-05
5.21702e-05
4.7882e-05
4.50412e-05
4.37939e-05
4.40455e-05
4.52573e-05
4.65021e-05
4.87687e-05
4.89519e-05
4.56697e-05
4.1731e-05
3.65305e-05
3.09431e-05
2.64118e-05
2.40409e-05
2.47767e-05
3.01945e-05
3.99369e-05
2.65755e-05
4.09403e-06
1.81762e-08
2.92211e-08
6.04657e-06
1.97336e-05
4.53729e-05
6.55946e-05
7.48811e-05
7.88201e-05
7.98215e-05
7.89696e-05
7.67528e-05
7.33068e-05
6.87149e-05
6.32435e-05
5.7421e-05
5.19634e-05
4.75329e-05
4.45562e-05
4.31963e-05
4.32961e-05
4.42995e-05
4.53451e-05
4.75963e-05
4.78375e-05
4.49826e-05
4.20167e-05
3.77501e-05
3.24958e-05
2.7653e-05
2.47797e-05
2.52703e-05
3.09758e-05
4.14428e-05
2.65999e-05
4.27582e-06
1.87472e-08
2.86328e-08
5.95471e-06
1.96289e-05
4.52506e-05
6.54681e-05
7.48061e-05
7.88499e-05
7.99432e-05
7.91439e-05
7.69226e-05
7.34161e-05
6.87124e-05
6.30932e-05
5.7114e-05
5.15281e-05
4.70319e-05
4.40432e-05
4.26941e-05
4.28598e-05
4.39477e-05
4.49185e-05
4.66634e-05
4.64334e-05
4.36539e-05
4.10674e-05
3.74929e-05
3.29472e-05
2.84819e-05
2.57696e-05
2.66885e-05
3.3439e-05
4.40392e-05
2.62858e-05
4.45318e-06
1.96039e-08
2.81886e-08
5.87707e-06
1.95226e-05
4.51459e-05
6.52505e-05
7.45837e-05
7.8703e-05
7.98986e-05
7.92044e-05
7.70664e-05
7.35886e-05
6.88149e-05
6.29995e-05
5.67275e-05
5.086e-05
4.6221e-05
4.32746e-05
4.21051e-05
4.25289e-05
4.38828e-05
4.50048e-05
4.61943e-05
4.53109e-05
4.22726e-05
3.93921e-05
3.60807e-05
3.24575e-05
2.90785e-05
2.73134e-05
2.92558e-05
3.70884e-05
4.62644e-05
2.5914e-05
4.57125e-06
2.01325e-08
2.7652e-08
5.80167e-06
1.95093e-05
4.50473e-05
6.49508e-05
7.43147e-05
7.85515e-05
7.98682e-05
7.92531e-05
7.7134e-05
7.36013e-05
6.86788e-05
6.261e-05
5.59881e-05
4.97525e-05
4.48721e-05
4.19281e-05
4.10066e-05
4.18559e-05
4.38697e-05
4.60926e-05
4.6332e-05
4.41427e-05
4.12832e-05
3.80758e-05
3.47631e-05
3.17611e-05
2.95775e-05
2.91795e-05
3.22534e-05
4.02497e-05
4.76089e-05
2.59612e-05
4.71356e-06
2.08373e-08
2.72267e-08
5.74943e-06
1.95861e-05
4.52196e-05
6.49051e-05
7.41949e-05
7.84546e-05
7.9811e-05
7.9198e-05
7.70307e-05
7.34218e-05
6.84363e-05
6.2275e-05
5.54687e-05
4.89229e-05
4.36766e-05
4.04637e-05
3.95666e-05
4.07773e-05
4.34052e-05
4.62066e-05
4.65479e-05
4.43597e-05
4.14207e-05
3.79879e-05
3.46073e-05
3.18071e-05
3.02376e-05
3.07319e-05
3.44188e-05
4.19568e-05
4.86052e-05
2.66767e-05
4.91786e-06
2.19163e-08
2.66997e-08
5.68973e-06
1.9657e-05
4.52501e-05
6.46553e-05
7.38816e-05
7.81485e-05
7.95159e-05
7.88865e-05
7.67036e-05
7.31323e-05
6.82882e-05
6.24092e-05
5.58386e-05
4.9159e-05
4.33218e-05
3.94542e-05
3.80566e-05
3.91628e-05
4.2098e-05
4.57211e-05
4.6913e-05
4.52953e-05
4.27259e-05
3.91829e-05
3.54934e-05
3.2517e-05
3.0882e-05
3.13553e-05
3.51442e-05
4.30836e-05
4.98531e-05
2.78378e-05
5.10483e-06
2.30758e-08
2.61559e-08
5.6378e-06
1.96435e-05
4.51698e-05
6.439e-05
7.35544e-05
7.78124e-05
7.9173e-05
7.853e-05
7.63752e-05
7.29436e-05
6.84028e-05
6.29439e-05
5.67671e-05
5.02425e-05
4.40664e-05
3.92211e-05
3.68477e-05
3.72138e-05
3.98772e-05
4.36877e-05
4.57641e-05
4.5406e-05
4.38725e-05
4.07925e-05
3.69464e-05
3.34623e-05
3.1405e-05
3.1729e-05
3.57383e-05
4.43703e-05
5.14934e-05
2.77904e-05
5.26035e-06
2.39394e-08
2.56598e-08
5.58938e-06
1.95702e-05
4.50443e-05
6.41877e-05
7.32829e-05
7.74555e-05
7.86876e-05
7.79042e-05
7.56634e-05
7.23221e-05
6.8173e-05
6.34196e-05
5.80284e-05
5.19434e-05
4.55815e-05
3.99868e-05
3.62698e-05
3.53554e-05
3.71521e-05
4.04444e-05
4.30927e-05
4.39871e-05
4.32369e-05
4.09118e-05
3.756e-05
3.42654e-05
3.23134e-05
3.29808e-05
3.78088e-05
4.73601e-05
5.316e-05
2.77789e-05
5.35794e-06
2.45875e-08
2.52618e-08
5.5382e-06
1.94315e-05
4.49865e-05
6.40935e-05
7.30228e-05
7.69812e-05
7.78906e-05
7.68001e-05
7.43491e-05
7.10338e-05
6.72852e-05
6.3373e-05
5.91239e-05
5.40619e-05
4.80209e-05
4.17635e-05
3.67886e-05
3.42653e-05
3.44768e-05
3.67591e-05
3.94962e-05
4.13558e-05
4.156e-05
4.00152e-05
3.74888e-05
3.49375e-05
3.36047e-05
3.4943e-05
4.04689e-05
4.98809e-05
5.41331e-05
2.76641e-05
5.44812e-06
2.52277e-08
2.48434e-08
5.44662e-06
1.91476e-05
4.49675e-05
6.42371e-05
7.27503e-05
7.62984e-05
7.68783e-05
7.53824e-05
7.25936e-05
6.91716e-05
6.57874e-05
6.27442e-05
5.98079e-05
5.62205e-05
5.12513e-05
4.5021e-05
3.88569e-05
3.44926e-05
3.28103e-05
3.36711e-05
3.60533e-05
3.83741e-05
3.94974e-05
3.90487e-05
3.74857e-05
3.57992e-05
3.51652e-05
3.70736e-05
4.29761e-05
5.20037e-05
5.51874e-05
2.78948e-05
5.62078e-06
2.59993e-08
2.44204e-08
5.35039e-06
1.89468e-05
4.46578e-05
6.38587e-05
7.22796e-05
7.54012e-05
7.52885e-05
7.32973e-05
7.00899e-05
6.65111e-05
6.34417e-05
6.13049e-05
5.97355e-05
5.77788e-05
5.43446e-05
4.89438e-05
4.24262e-05
3.65319e-05
3.28219e-05
3.20274e-05
3.34157e-05
3.56071e-05
3.73184e-05
3.77177e-05
3.71361e-05
3.6388e-05
3.66502e-05
3.92258e-05
4.53828e-05
5.38943e-05
5.61201e-05
2.84476e-05
5.79707e-06
2.68851e-08
2.41806e-08
5.26221e-06
1.87959e-05
4.48959e-05
6.38095e-05
7.17884e-05
7.44185e-05
7.36797e-05
7.10095e-05
6.71436e-05
6.33271e-05
6.05862e-05
5.93794e-05
5.92381e-05
5.88985e-05
5.70347e-05
5.28009e-05
4.66316e-05
4.0087e-05
3.49239e-05
3.24271e-05
3.2197e-05
3.33504e-05
3.51499e-05
3.62432e-05
3.65164e-05
3.67021e-05
3.78064e-05
4.11474e-05
4.76463e-05
5.56234e-05
5.70454e-05
2.91108e-05
5.98322e-06
2.79048e-08
2.40621e-08
5.16853e-06
1.89357e-05
4.5745e-05
6.40403e-05
7.10468e-05
7.32106e-05
7.18176e-05
6.81758e-05
6.37447e-05
6.00088e-05
5.79862e-05
5.78535e-05
5.90063e-05
6.02095e-05
5.97526e-05
5.65837e-05
5.10193e-05
4.44746e-05
3.86331e-05
3.48746e-05
3.28036e-05
3.25027e-05
3.36512e-05
3.49165e-05
3.5791e-05
3.66851e-05
3.84966e-05
4.23392e-05
4.90398e-05
5.68411e-05
5.79591e-05
2.98483e-05
6.13985e-06
2.88284e-08
2.38132e-08
5.13543e-06
1.95363e-05
4.64327e-05
6.39086e-05
7.08092e-05
7.20034e-05
6.9321e-05
6.46527e-05
5.99048e-05
5.66488e-05
5.56985e-05
5.69434e-05
5.94352e-05
6.16388e-05
6.19753e-05
5.95704e-05
5.46385e-05
4.85122e-05
4.26566e-05
3.80369e-05
3.45463e-05
3.27853e-05
3.3186e-05
3.43234e-05
3.53613e-05
3.65617e-05
3.87554e-05
4.29423e-05
4.98699e-05
5.77284e-05
5.87414e-05
3.04848e-05
6.26236e-06
2.9535e-08
2.34004e-08
5.09646e-06
1.9499e-05
4.66383e-05
6.39148e-05
6.95832e-05
6.953e-05
6.63263e-05
6.16817e-05
5.72892e-05
5.45137e-05
5.40949e-05
5.59852e-05
5.92848e-05
6.23669e-05
6.34168e-05
6.14348e-05
5.69784e-05
5.1553e-05
4.59893e-05
4.08161e-05
3.66178e-05
3.40864e-05
3.34417e-05
3.40325e-05
3.50765e-05
3.63977e-05
3.86972e-05
4.3063e-05
5.01999e-05
5.82737e-05
5.931e-05
3.05428e-05
6.3129e-06
3.01346e-08
2.26805e-08
5.00627e-06
1.98854e-05
4.7222e-05
6.28529e-05
6.76552e-05
6.74656e-05
6.45058e-05
6.03166e-05
5.62304e-05
5.33803e-05
5.26103e-05
5.42241e-05
5.76559e-05
6.1306e-05
6.30625e-05
6.16896e-05
5.77517e-05
5.31247e-05
4.76466e-05
4.20918e-05
3.79495e-05
3.53478e-05
3.42743e-05
3.43525e-05
3.50492e-05
3.63537e-05
3.88372e-05
4.3511e-05
5.11103e-05
5.95932e-05
6.00816e-05
2.99663e-05
6.38027e-06
3.08848e-08
2.17933e-08
4.80497e-06
2.01037e-05
4.6865e-05
6.17547e-05
6.67373e-05
6.71128e-05
6.47204e-05
6.07347e-05
5.62354e-05
5.23953e-05
5.04076e-05
5.10089e-05
5.40573e-05
5.82223e-05
6.11552e-05