/*--------------------------------*- C++ -*----------------------------------*\
  =========                 |
  \\      /  F ield         | OpenFOAM: The Open Source CFD Toolbox
   \\    /   O peration     | Website:  https://openfoam.org
    \\  /    A nd           | Version:  11
     \\/     M anipulation  |
\*---------------------------------------------------------------------------*/
FoamFile
{
    format      ascii;
    class       volScalarField;
    location    "800";
    object      omega;
}
// * * * * * * * * * * * * * * * * * * * * * * * * * * * * * * * * * * * * * //

dimensions      [0 0 -1 0 0 0 0];

internalField   nonuniform List<scalar> 
78750
(
1021.24
113.811
22.887
22.8954
22.9027
22.91
22.9171
22.9234
22.9288
22.9336
22.938
22.9421
22.9459
22.9494
22.9527
22.9557
22.9585
22.9611
22.9635
22.9656
22.9676
22.9693
22.9708
22.9721
22.9731
22.9739
22.9744
22.9745
22.9746
22.9747
22.9749
22.976
22.9873
114.955
1072.47
1020.58
113.608
4.73978
5.00757
5.42054
5.82132
6.14778
6.39973
6.59396
6.7442
6.85865
6.95087
7.01305
7.05432
7.07473
7.07501
7.06771
7.04663
7.01588
6.97517
6.924
6.85828
6.77446
6.68079
6.58491
6.49827
6.42053
6.3637
6.36319
6.4007
6.55726
6.81829
6.7888
115.325
1078.25
1020.51
113.587
4.01623
5.32979
6.03573
6.5528
6.9012
7.14401
7.31592
7.4342
7.50782
7.53859
7.54232
7.52933
7.49419
7.44219
7.37432
7.29192
7.19563
7.0855
6.96725
6.84634
6.72464
6.59885
6.47324
6.35329
6.23445
6.12469
6.03903
5.99182
6.00263
6.05563
5.90816
115.926
1080.27
1020.61
113.66
4.72649
5.95681
6.60778
6.97352
7.20156
7.35471
7.45905
7.52822
7.5701
7.58939
7.58828
7.56922
7.52945
7.47247
7.3986
7.30834
7.20353
7.08673
6.95844
6.81621
6.66094
6.5017
6.34285
6.18888
6.03637
5.89635
5.78317
5.70573
5.67755
5.65616
5.36803
116.469
1081.73
1020.66
113.688
5.3417
6.39804
6.94703
7.27346
7.49323
7.65019
7.76136
7.83467
7.87473
7.88464
7.87119
7.83024
7.76623
7.67989
7.57373
7.45029
7.31092
7.15704
6.99137
6.81808
6.63741
6.45176
6.26749
6.08869
5.91188
5.74819
5.60974
5.49896
5.41885
5.30207
4.80898
116.851
1082.6
1020.72
113.722
5.63784
6.64212
7.14374
7.4401
7.63887
7.77651
7.8685
7.92352
7.9471
7.94396
7.91518
7.86377
7.79138
7.6995
7.58942
7.46238
7.31968
7.16272
6.99371
6.81636
6.63285
6.44402
6.25487
6.06586
5.87328
5.68746
5.52246
5.37615
5.25172
5.1195
4.88325
117.187
1083.28
1020.75
113.737
5.93403
6.8977
7.37753
7.66395
7.85823
7.99403
8.08525
8.13934
8.16095
8.15482
8.12119
8.06254
7.98051
7.87662
7.75235
7.60947
7.45073
7.27915
7.09678
6.90442
6.70281
6.49659
6.29001
6.0867
5.88252
5.68707
5.50871
5.34016
5.18152
5.01431
4.09503
117.386
1083.67
1020.78
113.755
6.10142
7.03476
7.49506
7.77146
7.9589
8.08795
8.17167
8.21742
8.23008
8.2157
8.17309
8.10601
8.01647
7.90644
7.77785
7.63235
7.47138
7.29679
7.11012
6.91309
6.70835
6.50017
6.29027
6.07848
5.8627
5.65575
5.46724
5.28741
5.1151
4.94641
4.10274
117.593
1084.05
1020.8
113.766
6.33526
7.24319
7.69091
7.96126
8.14526
8.27179
8.35327
8.39665
8.40635
8.38819
8.3403
8.26679
8.16984
8.05166
7.91477
7.76233
7.59738
7.42165
7.23604
7.04136
6.83759
6.62465
6.40284
6.17491
5.94048
5.71308
5.50139
5.29708
5.10658
4.94706
4.87213
117.784
1084.39
1020.83
113.778
6.45117
7.34354
7.78332
8.0501
8.23149
8.35502
8.43267
8.47113
8.47494
8.45038
8.39552
8.31512
8.21177
8.08809
7.94686
7.79107
7.62402
7.44781
7.26402
7.07478
6.88113
6.68174
6.47109
6.24114
6.00077
5.77517
5.5536
5.32624
5.10866
4.92241
4.11436
117.891
1084.57
1020.85
113.787
6.65483
7.52351
7.95304
8.21568
8.39502
8.51698
8.59273
8.62854
8.62882
8.59958
8.53881
8.45136
8.33987
8.20724
8.05668
7.89172
7.71618
7.53352
7.34695
7.15938
6.97151
6.78193
6.58551
6.37363
6.15022
5.92345
5.68738
5.43975
5.18828
4.94162
4.11603
117.935
1084.65
1020.87
113.797
6.74618
7.60657
8.03331
8.2956
8.47502
8.59683
8.67195
8.70646
8.70474
8.67113
8.60671
8.51481
8.39804
8.25949
8.1026
7.93145
7.75052
7.56357
7.37373
7.18403
6.99766
6.81344
6.62479
6.42387
6.21367
5.99594
5.75635
5.50148
5.24729
4.99258
4.12378
118.106
1084.96
1020.88
113.805
6.92657
7.76444
8.1826
8.44221
8.62091
8.74262
8.81778
8.85228
8.85024
8.81529
8.74798
8.65135
8.52807
8.38167
8.21515
8.03254
7.83851
7.63794
7.43657
7.23949
7.04807
6.86115
6.67189
6.47193
6.26239
6.04013
5.78808
5.51292
5.25841
5.00762
4.13031
118.243
1085.18
1020.9
113.812
7.00031
7.83595
8.25509
8.51679
8.69759
8.82116
8.89794
8.93389
8.93323
8.90043
8.8352
8.74062
8.61844
8.47065
8.30034
8.11261
7.91169
7.7027
7.4923
7.2881
7.09521
6.91229
6.73369
6.55725
6.37714
6.17395
5.92577
5.62917
5.32532
5.07631
4.87431
118.259
1085.21
1020.91
113.818
7.15919
7.97657
8.38954
8.64988
8.83099
8.95552
9.03361
9.07111
9.07202
9.04072
8.97684
8.88335
8.76166
8.61314
8.43942
8.24276
8.02706
7.79834
7.56602
7.33889
7.12529
6.92942
6.75007
6.58597
6.42784
6.25423
6.04213
5.77474
5.45372
5.13033
4.13436
118.334
1085.35
1020.92
113.824
7.2223
8.04161
8.45781
8.7216
8.90604
9.03389
9.11537
9.15639
9.16105
9.1331
9.07337
8.98417
8.86671
8.72209
8.55159
8.35695
8.14064
7.90552
7.6571
7.40709
7.16879
6.94934
6.75109
6.57616
6.41423
6.24434
6.04541
5.80481
5.51293
5.17313
4.14086
118.451
1085.55
1020.94
113.829
7.35436
8.16185
8.57519
8.83953
9.02593
9.15662
9.24165
9.28682
9.29619
9.27293
9.21848
9.13447
9.02183
8.88132
8.71375
8.52023
8.30251
8.06267
7.80462
7.53517
7.26434
7.0094
6.78403
6.59174
6.41966
6.24535
6.04867
5.81386
5.52527
5.21147
4.1435
118.496
1085.6
1020.94
113.83
7.39557
8.21219
8.63244
8.9027
9.09485
9.23156
9.32305
9.37514
9.39187
9.37632
9.33037
9.2552
9.15155
9.01988
8.86056
8.67419
8.46176
8.22446
7.96521
7.68962
7.40495
7.1211
6.85603
6.64461
6.47467
6.31604
6.13506
5.9014
5.60777
5.26446
4.8609
118.501
1085.61
1020.95
113.83
7.49104
8.30602
8.72863
9.00227
9.19882
9.34109
9.4392
9.49879
9.52371
9.51733
9.48112
9.41612
9.3228
9.20127
9.05143
8.87323
8.66685
8.43254
8.17188
7.88873
7.58841
7.277
6.96507
6.68239
6.45915
6.30266
6.15866
5.98477
5.72767
5.35463
4.14653
118.561
1085.74
1020.95
113.829
7.5316
8.35331
8.78254
9.06258
9.2657
9.41495
9.52073
9.58871
9.62305
9.62664
9.60139
9.54815
9.46726
9.35858
9.22173
9.05625
8.86185
8.6382
8.38602
8.10756
7.80531
7.47902
7.12982
6.78339
6.4808
6.25328
6.09142
5.94712
5.72749
5.36276
4.15231
118.652
1085.87
1020.94
113.824
7.60475
8.4353
8.87131
9.15596
9.36384
9.5188
9.63138
9.70723
9.75039
9.7637
9.74917
9.70767
9.63934
9.54386
9.42061
9.26891
9.08831
8.87854
8.64044
8.37647
8.08907
7.77465
7.42281
7.03936
6.66081
6.32912
6.09783
5.93343
5.73083
5.3856
4.15337
118.66
1085.85
1020.94
113.819
7.64621
8.48492
8.92911
9.2205
9.43481
9.59638
9.71598
9.79944
9.85076
9.87303
9.86844
9.838
9.78145
9.69839
9.58792
9.44902
9.2811
9.08356
8.857
8.60398
8.32765
8.02989
7.70405
7.33557
6.93963
6.5598
6.22333
5.96989
5.75172
5.43138
4.15341
118.662
1085.85
1020.93
113.815
7.73363
8.57686
9.02665
9.32144
9.53882
9.70393
9.82771
9.91611
9.97302
10.0016
10.004
9.98298
9.93551
9.86219
9.76184
9.63263
9.47281
9.28212
9.06193
8.81473
8.54349
8.25003
7.92781
7.56163
7.16306
6.76953
6.40235
6.09384
5.82021
5.46245
4.15477
118.697
1085.92
1020.93
113.815
7.81781
8.65906
9.11227
9.40961
9.62937
9.79686
9.9231
10.0143
10.0744
10.1068
10.114
10.0989
10.0582
9.99207
9.8988
9.77761
9.62763
9.44754
9.23683
8.99648
8.72874
8.43389
8.1022
7.71639
7.28959
6.86582
6.48061
6.16657
5.87724
5.48658
4.15858
118.761
1086.02
1020.94
113.822
7.97119
8.78701
9.2339
9.52944
9.74795
9.91422
10.0394
10.1301
10.1903
10.2243
10.2347
10.2246
10.191
10.1331
10.0524
9.94682
9.81311
9.64746
9.44837
9.21685
8.95684
8.66815
8.33673
7.94269
7.4943
7.02941
6.58207
6.21527
5.90693
5.51534
4.15892
118.761
1086
1020.96
113.833
8.11096
8.8973
9.33444
9.62651
9.84361
10.0089
10.1327
10.2216
10.28
10.3123
10.3227
10.3159
10.2917
10.2529
10.196
10.116
10.0056
9.85905
9.67333
9.44737
9.18364
8.89037
8.55679
8.17038
7.7418
7.29248
6.82621
6.40039
6.03661
5.62008
4.92232
118.762
1086
1020.99
113.847
8.27151
9.026
9.44927
9.73403
9.94576
10.1058
10.2241
10.3065
10.3577
10.3825
10.3846
10.3713
10.3442
10.306
10.2555
10.1908
10.1043
9.98896
9.83966
9.6499
9.40978
9.10872
8.74112
8.31567
7.86934
7.42638
6.98538
6.55704
6.157
5.68424
4.92938
118.792
1086.09
1021.02
113.862
8.38713
9.11545
9.52565
9.80428
10.0123
10.169
10.2833
10.3606
10.406
10.4243
10.4209
10.3993
10.3616
10.3224
10.2863
10.2416
10.1786
10.0905
9.96982
9.80751
9.58862
9.29712
8.92164
8.4568
7.92951
7.42966
6.97982
6.58561
6.19852
5.69978
4.91483
118.896
1086.28
1021.05
113.876
8.50901
9.20533
9.59995
9.87074
10.0736
10.2257
10.3349
10.4058
10.4432
10.451
10.4365
10.4027
10.3646
10.3257
10.29
10.2601
10.2278
10.1733
10.0828
9.95011
9.75806
9.49143
9.13559
8.67891
8.11953
7.49554
7.0004
6.59118
6.21444
5.7088
4.92164
118.935
1086.31
1021.07
113.885
8.57092
9.24921
9.63597
9.90402
10.1059
10.2572
10.3645
10.4314
10.462
10.4622
10.4398
10.3997
10.3542
10.3126
10.2822
10.2602
10.2392
10.2084
10.1615
10.0763
9.93656
9.7332
9.45139
9.07561
8.58093
7.92958
7.19384
6.65063
6.25398
5.76425
4.98534
118.93
1086.29
1021.09
113.892
8.63171
9.29368
9.67276
9.93759
10.1379
10.2879
10.3931
10.4568
10.4835
10.4782
10.4459
10.3953
10.3352
10.2804
10.2433
10.2268
10.2203
10.2067
10.1723
10.1084
10.0063
9.8516
9.63291
9.33617
8.93575
8.37824
7.65793
6.93531
6.38134
5.83873
5.05355
118.932
1086.3
1021.09
113.895
8.6493
9.30973
9.6888
9.95461
10.1562
10.3077
10.4148
10.48
10.5062
10.4977
10.4598
10.3994
10.3289
10.2573
10.2004
10.1714
10.1654
10.1642
10.1486
10.1025
10.0136
9.87494
9.67952
9.41553
9.05766
8.56364
7.91601
7.18978
6.53618
5.91349
5.09187
118.985
1086.43
1021.1
113.898
8.67635
9.33509
9.71342
9.97962
10.1823
10.3349
10.442
10.5055
10.5285
10.5156
10.4705
10.3995
10.3112
10.2172
10.1405
10.0903
10.0758
10.0799
10.0786
10.0513
9.9806
9.8564
9.67137
9.41297
9.05622
8.57123
7.96451
7.29149
6.63792
5.98148
5.13358
119.062
1086.53
1021.11
113.9
8.68405
9.34511
9.7251
9.99342
10.1988
10.3548
10.4661
10.5341
10.5604
10.5476
10.4973
10.4145
10.3086
10.1941
10.0801
9.99944
9.97149
9.972
9.98339
9.97981
9.93888
9.84545
9.68667
9.44579
9.09669
8.6201
8.02523
7.37351
6.73685
6.07905
5.23159
119.075
1086.52
1021.11
113.9
8.68849
9.357
9.74225
10.0134
10.2219
10.3825
10.5
10.5753
10.608
10.5982
10.5476
10.4591
10.3387
10.1978
10.057
9.93391
9.84002
9.81874
9.83232
9.85221
9.84956
9.80297
9.69548
9.51072
9.22222
8.79807
8.2302
7.56377
6.88937
6.19984
5.34278
119.075
1086.52
1021.11
113.896
8.67812
9.35665
9.74888
10.0258
10.2405
10.4096
10.5384
10.6281
10.6788
10.6906
10.663
10.594
10.4836
10.3323
10.1472
9.95353
9.78704
9.66178
9.61124
9.62907
9.65379
9.65216
9.60081
9.47521
9.24504
8.90037
8.40742
7.76838
7.06215
6.33107
5.44661
119.088
1086.55
1021.1
113.889
8.66471
9.35507
9.75632
10.0413
10.2635
10.4401
10.5791
10.682
10.7486
10.7784
10.7717
10.7261
10.6415
10.515
10.3446
10.131
9.88832
9.65569
9.4934
9.40277
9.39115
9.40198
9.38765
9.31912
9.16931
8.89186
8.46557
7.8901
7.20245
6.45782
5.55137
119.132
1086.62
1021.09
113.884
8.65589
9.35945
9.77012
10.0622
10.2916
10.4761
10.6239
10.7369
10.8165
10.8638
10.8774
10.8542
10.7894
10.6807
10.5315
10.3395
10.1063
9.83799
9.56066
9.33255
9.20796
9.1661
9.14969
9.10997
9.00433
8.79428
8.44801
7.93797
7.29576
6.56856
5.66536
119.14
1086.62
1021.08
113.881
8.65236
9.36819
9.78918
10.0886
10.3242
10.5141
10.6662
10.7848
10.8726
10.9326
10.9649
10.9664
10.9327
10.8524
10.7194
10.535
10.3107
10.0497
9.75938
9.46289
9.20772
9.0571
8.99145
8.95427
8.8857
8.73246
8.44888
8.00532
7.41311
6.70654
5.81261
119.128
1086.57
1021.08
113.881
8.65548
9.38637
9.81576
10.1193
10.3572
10.5492
10.7043
10.827
10.9203
10.988
11.0315
11.0492
11.0365
10.9831
10.8834
10.7318
10.5245
10.2686
9.97141
9.64847
9.33108
9.07546
8.92767
8.85789
8.80465
8.69822
8.47415
8.0848
7.52759
6.83078
5.9343
119.128
1086.58
1021.09
113.883
8.6762
9.41056
9.84439
10.1517
10.3925
10.5864
10.7423
10.8652
10.9589
11.0286
11.078
11.1077
11.1148
11.0982
11.0467
10.9444
10.7781
10.5402
10.2333
9.87757
9.50621
9.17271
8.93203
8.79921
8.73762
8.66242
8.47722
8.1464
7.62411
6.94228
6.04259
119.16
1086.66
1021.1
113.891
8.70134
9.43598
9.87295
10.1833
10.4261
10.6207
10.7762
10.8981
10.9903
11.0591
11.1098
11.1458
11.1694
11.1758
11.155
11.0915
10.974
10.7885
10.5249
10.1779
9.763
9.33905
8.98548
8.76032
8.63768
8.56941
8.44532
8.15125
7.66674
7.01033
6.11833
119.193
1086.7
1021.11
113.898
8.72356
9.45579
9.89351
10.2057
10.4502
10.6458
10.8015
10.9222
11.0117
11.0764
11.1218
11.1534
11.1743
11.1851
11.1829
11.1562
11.0872
10.9564
10.7569
10.4726
10.098
9.66153
9.22364
8.85062
8.63931
8.51184
8.38189
8.1445
7.71301
7.0978
6.23162
119.18
1086.66
1021.12
113.905
8.73616
9.46263
9.89953
10.2133
10.4597
10.6569
10.813
10.933
11.0204
11.0815
11.1243
11.1539
11.1737
11.185
11.1851
11.1687
11.1243
11.0479
10.915
10.7065
10.4162
10.0502
9.63191
9.18938
8.79373
8.54288
8.38236
8.15097
7.76925
7.18867
6.34416
119.162
1086.62
1021.14
113.914
8.73983
9.46362
9.90025
10.2149
10.4625
10.6606
10.8172
10.9369
11.0231
11.0816
11.117
11.1366
11.1469
11.1528
11.1554
11.1495
11.123
11.0632
10.9624
10.8136
10.6008
10.3229
9.98421
9.58607
9.16723
8.79708
8.49291
8.21489
7.83442
7.27182
6.44273
119.165
1086.63
1021.15
113.92
8.73727
9.45483
9.89031
10.2067
10.4568
10.6571
10.8149
10.9351
11.0215
11.0805
11.1165
11.1341
11.1386
11.1356
11.128
11.1155
11.0903
11.0405
10.9548
10.8251
10.6471
10.4192
10.1346
9.79527
9.42317
9.05092
8.69584
8.3431
7.91565
7.34593
6.51611
119.209
1086.73
1021.16
113.923
8.71302
9.4303
9.86664
10.1847
10.4375
10.6416
10.8042
10.9291
11.0193
11.0801
11.1169
11.1339
11.1372
11.1306
11.1164
11.0947
11.0628
11.0125
10.9318
10.8074
10.6353
10.4141
10.1412
9.8286
9.49964
9.17057
8.83163
8.45727
7.99802
7.4176
6.58198
119.265
1086.81
1021.17
113.927
8.68423
9.40592
9.84559
10.1671
10.4231
10.6296
10.7939
10.92
11.0116
11.0743
11.113
11.1324
11.1366
11.13
11.1157
11.0931
11.06
11.0095
10.9318
10.8152
10.6519
10.4363
10.1664
9.85256
9.52628
9.21428
8.90209
8.54607
8.09292
7.52117
6.7041
119.273
1086.81
1021.18
113.93
8.65152
9.37697
9.81875
10.1415
10.3984
10.6063
10.7722
10.9004
10.9944
11.0597
11.1013
11.1239
11.1319
11.1294
11.1186
11.1004
11.0709
11.0239
10.9531
10.8489
10.7037
10.5098
10.2579
9.95104
9.61438
9.28206
8.96024
8.61378
8.17793
7.6231
6.82329
119.268
1086.78
1021.18
113.934
8.61834
9.34953
9.7947
10.1198
10.3786
10.5878
10.7547
10.8834
10.9778
11.0435
11.0858
11.1096
11.1201
11.1216
11.1168
11.1041
11.0804
11.0415
10.9784
10.8852
10.7574
10.5885
10.3676
10.0899
9.76592
9.41846
9.06476
8.69671
8.26021
7.71912
6.93725
119.269
1086.78
1021.2
113.94
8.58529
9.32
9.76761
10.0947
10.355
10.5654
10.7333
10.8625
10.957
11.0223
11.0637
11.0861
11.0955
11.0976
11.0964
11.0916
11.0771
11.0442
10.987
10.8996
10.7795
10.6221
10.4218
10.1767
9.88747
9.55841
9.19409
8.79821
8.34245
7.80234
7.02444
119.291
1086.83
1021.2
113.943
8.53732
9.28151
9.73455
10.0652
10.3282
10.5406
10.71
10.8402
10.9354
11.0009
11.0417
11.0627
11.0694
11.0686
11.0662
11.0644
11.0583
11.0374
10.9887
10.9054
10.7843
10.624
10.4242
10.1878
9.92342
9.62868
9.28889
8.89586
8.43326
7.8907
7.11412
119.309
1086.85
1021.21
113.946
8.49311
9.24475
9.70198
10.0355
10.3008
10.5153
10.6866
10.8187
10.9158
10.9833
11.0259
11.0482
11.0551
11.053
11.0487
11.0472
11.0477
11.0409
11.0126
10.9475
10.8362
10.6734
10.4617
10.2135
9.94185
9.6553
9.33839
8.96766
8.5188
7.98552
7.22123
119.3
1086.82
1021.21
113.95
8.44363
9.20667
9.67049
10.0083
10.2766
10.4933
10.6662
10.7993
10.897
10.9648
11.0079
11.0306
11.0375
11.0339
11.0258
11.0192
11.0199
11.0246
11.0199
10.9892
10.9154
10.7861
10.5947
10.3473
10.0599
9.75141
9.42328
9.0561
8.61606
8.0905
7.33731
119.29
1086.79
1021.22
113.952
8.39764
9.1706
9.64054
9.98284
10.2548
10.4745
10.6496
10.7845
10.8833
10.952
10.996
11.0202
11.0291
11.0275
11.0198
11.0107
10.9993
10.9905
10.9854
10.9709
10.9285
10.8428
10.6979
10.4858
10.2121
9.89268
9.54095
9.15507
8.70796
8.18489
7.43617
119.291
1086.8
1021.22
113.957
8.35509
9.13756
9.61326
9.95976
10.235
10.4571
10.6339
10.7697
10.8684
10.9361
10.9791
11.0035
11.0152
11.0193
11.0182
11.0118
10.9986
10.981
10.9611
10.9389
10.9056
10.8443
10.7366
10.5714
10.334
10.0271
9.66294
9.25474
8.79576
8.2763
7.5359
119.304
1086.82
1021.23
113.963
8.32238
9.1118
9.59219
9.94254
10.2209
10.4455
10.6239
10.7601
10.8574
10.9218
10.96
10.9798
10.9898
10.9989
11.0104
11.0195
11.0174
10.9961
10.9609
10.9178
10.8679
10.8071
10.7235
10.5919
10.4013
10.1299
9.77668
9.35809
8.88907
8.36652
7.6178
119.34
1086.89
1021.24
113.97
8.2835
9.08053
9.56646
9.92174
10.2044
10.4327
10.6138
10.7513
10.8476
10.9075
10.9376
10.9471
10.9471
10.9526
10.9743
11.0075
11.0332
11.0352
11.0035
10.9442
10.8702
10.7868
10.6906
10.5729
10.408
10.1747
9.85273
9.44805
8.98235
8.45819
7.70738
119.359
1086.91
1021.26
113.977
8.25007
9.05003
9.53886
9.89802
10.1852
10.4181
10.6038
10.7452
10.8437
10.9039
10.9274
10.9201
10.8999
10.8874
10.903
10.9534
11.0177
11.0606
11.0616
11.014
10.9241
10.8113
10.6949
10.5708
10.4103
10.1981
9.90657
9.52801
9.07821
8.56151
7.81717
119.352
1086.88
1021.27
113.985
8.20907
9.01357
9.50624
9.8697
10.1617
10.4002
10.5921
10.7396
10.8428
10.9036
10.9261
10.9138
10.8729
10.8241
10.8109
10.8504
10.94
11.0369
11.0971
11.0987
11.0392
10.9239
10.7727
10.606
10.4345
10.2326
9.96649
9.61425
9.18097
8.67181
7.93434
119.342
1086.85
1021.28
113.99
8.16455
8.97318
9.46916
9.83681
10.1343
10.38
10.5809
10.7386
10.8515
10.9197
10.9429
10.9239
10.8719
10.8011
10.7315
10.7274
10.7963
10.9183
11.035
11.1017
11.106
11.0434
10.9136
10.738
10.5368
10.3119
10.0403
9.69559
9.27439
8.7782
8.05126
119.343
1086.86
1021.29
113.995
8.11811
8.9302
9.429
9.80017
10.1026
10.3554
10.5661
10.7367
10.8652
10.9495
10.9862
10.9723
10.9095
10.8106
10.7061
10.6257
10.6355
10.7402
10.8864
11.0149
11.0797
11.0656
10.9879
10.844
10.6471
10.4091
10.1226
9.77198
9.35563
8.86586
8.13837
119.355
1086.89
1021.3
113.999
8.07369
8.88858
9.38953
9.76333
10.0697
10.3285
10.5482
10.7316
10.8774
10.9817
11.0402
11.0464
10.9957
10.8898
10.7458
10.6081
10.5282
10.5513
10.6789
10.8356
10.9602
11.018
10.9851
10.8811
10.7108
10.4806
10.1907
9.8382
9.426
8.94056
8.21362
119.381
1086.93
1021.3
114.004
8.03134
8.85052
9.35348
9.72909
10.0382
10.3013
10.5282
10.7228
10.8841
11.0132
11.1001
11.1366
11.1147
11.0288
10.8812
10.6934
10.5238
10.4466
10.4923
10.6316
10.7864
10.897
10.9323
10.8781
10.7438
10.5347
10.2526
9.90354
9.49549
9.01425
8.29228
119.392
1086.94
1021.31
114.01
7.99055
8.81539
9.32155
9.69877
10.0092
10.2747
10.5062
10.7092
10.8846
11.034
11.1482
11.2174
11.2303
11.1805
11.059
10.8707
10.645
10.4548
10.385
10.4529
10.6001
10.7442
10.8306
10.8334
10.7429
10.5692
10.3059
9.96633
9.56444
9.08812
8.37388
119.398
1086.94
1021.32
114.019
7.9606
8.78427
9.28954
9.66667
9.97705
10.2431
10.4769
10.6857
10.8719
11.0356
11.1762
11.2797
11.3297
11.3211
11.2431
11.0901
10.8681
10.6187
10.4279
10.3758
10.4446
10.5802
10.7012
10.7555
10.7189
10.5776
10.3419
10.0207
9.6303
9.1607
8.45364
119.398
1086.93
1021.34
114.034
7.94746
8.76538
9.26643
9.64127
9.94961
10.213
10.4453
10.6558
10.8492
11.0258
11.178
11.3003
11.3897
11.424
11.3915
11.288
11.1083
10.8673
10.6194
10.4492
10.4231
10.484
10.5852
10.6628
10.6672
10.5718
10.3664
10.0673
9.69107
9.23032
8.53156
119.385
1086.9
1021.38
114.055
7.92519
8.7337
9.2294
9.60052
9.90471
10.1652
10.3958
10.6062
10.8029
10.9891
11.1588
11.299
11.4006
11.4592
11.4745
11.4262
11.2992
11.1033
10.8639
10.6395
10.4984
10.4897
10.548
10.6079
10.6246
10.5611
10.3886
10.1156
9.75738
9.30746
8.61591
119.378
1086.88
1021.41
114.068
7.88029
8.68138
9.17047
9.53835
9.84195
10.1011
10.3277
10.5315
10.7217
10.9055
11.0811
11.2387
11.3652
11.4508
11.4882
11.4756
11.4103
11.2774
11.0845
10.8665
10.6811
10.5798
10.5705
10.6092
10.6222
10.5639
10.4104
10.1561
9.81136
9.3696
8.68269
119.378
1086.89
1021.43
114.078
7.81889
8.61525
9.10255
9.47181
9.77546
10.0318
10.2521
10.4461
10.6241
10.7956
10.9632
11.12
11.2555
11.3607
11.4295
11.4549
11.4307
11.3523
11.2179
11.0392
10.8574
10.7219
10.6565
10.6408
10.6321
10.5768
10.433
10.1914
9.85957
9.42932
8.75074
119.382
1086.9
1021.43
114.08
7.73257
8.53645
9.02549
9.39423
9.69605
9.94981
10.1664
10.3543
10.5226
10.6819
10.8372
10.9853
11.1171
11.2244
11.3035
11.3515
11.3643
11.3359
11.2589
11.1381
10.9913
10.8567
10.764
10.7132
10.675
10.604
10.4582
10.2228
9.90098
9.47832
8.80194
119.391
1086.92
1021.43
114.076
7.64092
8.45137
8.94149
9.31138
9.61519
9.87209
10.0924
10.2832
10.4516
10.6059
10.7514
10.8872
11.0065
11.102
11.1733
11.2188
11.2402
11.2378
11.2066
11.1369
11.0437
10.9425
10.8554
10.7907
10.7322
10.6443
10.4899
10.2544
9.93715
9.51921
8.84676
119.41
1086.96
1021.42
114.073
7.57016
8.3893
8.88131
9.2508
9.55446
9.81206
10.0349
10.2309
10.4067
10.569
10.7197
10.8555
10.9697
11.0561
11.1098
11.1359
11.1412
11.1331
11.1147
11.0847
11.0329
10.9667
10.902
10.8415
10.7757
10.6772
10.5159
10.2802
9.96745
9.55424
8.88322
119.432
1086.99
1021.42
114.074
7.52403
8.34779
8.83831
9.20361
9.50201
9.7549
9.97472
10.1707
10.3513
10.5247
10.6913
10.8425
10.9658
11.0534
11.1034
11.1181
11.1041
11.0711
11.0347
11.0061
10.9829
10.9549
10.9131
10.8682
10.803
10.7008
10.5369
10.3023
9.99339
9.58477
8.92141
119.447
1087
1021.42
114.077
7.46138
8.29478
8.78712
9.15055
9.44509
9.69285
9.9074
10.1001
10.2819
10.4649
10.6516
10.8309
10.9831
11.0906
11.148
11.1589
11.1315
11.0764
11.0108
10.9526
10.9165
10.9022
10.8941
10.8678
10.816
10.7178
10.5564
10.3255
10.0221
9.62181
8.97295
119.45
1087
1021.43
114.079
7.41428
8.25516
8.74846
9.1094
9.39916
9.64031
9.84689
10.0312
10.2067
10.3903
10.5903
10.7968
10.9847
11.1314
11.2176
11.2461
11.2237
11.1583
11.064
10.9726
10.9148
10.8829
10.8696
10.8541
10.8145
10.7257
10.5724
10.3485
10.0519
9.65914
9.02164
119.444
1086.98
1021.43
114.084
7.37399
8.2227
8.71784
9.07742
9.36334
9.5983
9.79634
9.97027
10.1346
10.3106
10.5134
10.7392
10.9616
11.1466
11.2765
11.3393
11.3417
11.2899
11.1934
11.072
10.9593
10.8944
10.8696
10.8532
10.8149
10.7319
10.5862
10.3709
10.0834
9.70082
9.07779
119.441
1086.97
1021.44
114.091
7.33254
8.19039
8.68912
9.04955
9.33381
9.56417
9.7543
9.9168
10.0663
10.2266
10.4194
10.6506
10.8986
11.1249
11.2971
11.4043
11.4437
11.4203
11.3401
11.216
11.0789
10.9709
10.9078
10.8739
10.834
10.755
10.6133
10.4014
10.1166
9.7369
9.12033
119.44
1086.97
1021.45
114.092
7.28219
8.15056
8.65476
9.01814
9.303
9.53117
9.71584
9.86929
10.006
10.149
10.324
10.5451
10.8011
11.0566
11.2727
11.4264
11.5116
11.5291
11.4806
11.3713
11.2226
11.0774
10.9755
10.9179
10.8699
10.7903
10.6508
10.4413
10.159
9.78252
9.17368
119.43
1086.94
1021.45
114.093
7.24115
8.12243
8.63369
9.00102
9.28706
9.51345
9.69331
9.83897
9.9653
10.0957
10.2577
10.4687
10.722
10.988
11.2298
11.4206
11.5487
11.6125
11.6095
11.5388
11.4068
11.2439
11.0972
10.9951
10.9211
10.8343
10.6971
10.4917
10.2128
9.83922
9.23496
119.429
1086.94
1021.46
114.103
7.21944
8.10748
8.62419
8.99607
9.28467
9.51017
9.68466
9.82131
9.93546
10.0532
10.2072
10.4185
10.6775
10.9505
11.2017
11.4078
11.5592
11.6546
11.6915
11.6652
11.5732
11.4281
11.2637
11.1195
11.0057
10.8942
10.7463
10.5377
10.2587
9.88636
9.28442
119.431
1086.95
1021.48
114.114
7.19642
8.08774
8.60983
8.98815
9.28161
9.50877
9.68107
9.80808
9.90798
10.0084
10.1494
10.3615
10.6353
10.9254
11.188
11.4011
11.56
11.6672
11.7242
11.7294
11.679
11.5747
11.4325
11.28
11.1362
10.992
10.8201
10.599
10.3161
9.94343
9.34318
119.448
1086.99
1021.49
114.123
7.16028
8.06024
8.59074
8.97775
9.27837
9.51062
9.68171
9.80207
9.88782
9.96663
10.0842
10.2844
10.5681
10.8814
11.1657
11.3935
11.5599
11.6688
11.727
11.7382
11.7067
11.6352
11.5303
11.4026
11.2602
11.1
10.907
10.6662
10.3664
9.97889
9.36313
119.462
1087.02
1021.51
114.132
7.1186
8.02855
8.5686
8.96553
9.27462
9.51247
9.68481
9.80017
9.87328
9.93063
10.02
10.1985
10.4858
10.8276
11.1475
11.4033
11.5861
11.7016
11.7568
11.7611
11.7212
11.6481
11.5535
11.4434
11.3166
11.1639
10.9718
10.7283
10.4256
10.0393
9.43579
119.46
1087.01
1021.52
114.141
7.07531
7.99958
8.55133
8.95954
9.27943
9.52351
9.69837
9.8104
9.87121
9.90498
9.96128
10.1075
10.3871
10.7548
11.1158
11.412
11.6308
11.7741
11.8474
11.8588
11.818
11.7385
11.6385
11.5314
11.4121
11.2639
11.0722
10.8257
10.5155
10.1201
9.513
119.401
1086.87
1021.54
114.157
7.04591
7.97715
8.53728
8.95531
9.28559
9.53782
9.71682
9.82645
9.87543
9.88482
9.90672
10.0166
10.2809
10.6741
11.0814
11.4243
11.6922
11.8785
11.9865
12.0236
11.9985
11.9196
11.8046
11.6738
11.5345
11.3756
11.1785
10.9261
10.6145
10.2279
9.64012
119.385
1086.85
1021.56
114.173
7.02227
7.95782
8.52608
8.95445
9.29596
9.55817
9.7438
9.85328
9.89102
9.87431
9.83998
9.88502
10.1047
10.5045
10.9655
11.3761
11.6987
11.9376
12.0919
12.1683
12.1728
12.1135
11.999
11.8495
11.684
11.5038
11.2929
11.0384
10.7308
10.3388
9.7276
119.389
1086.87
1021.59
114.19
6.99524
7.93203
8.50701
8.94674
9.29782
9.57707
9.77613
9.89272
9.92571
9.88827
9.8185
9.79197
9.94807
10.3377
10.8301
11.2994
11.6763
11.9439
12.1296
12.2382
12.2725
12.2354
12.1329
11.9831
11.8078
11.6156
11.3961
11.1351
10.8162
10.4039
9.75359
119.442
1087.02
1021.63
114.204
6.95395
7.88872
8.47122
8.92521
9.29645
9.59409
9.81795
9.95626
9.99978
9.95699
9.84997
9.75601
9.78406
10.0436
10.5211
11.0757
11.5557
11.9008
12.1167
12.234
12.2719
12.247
12.1598
12.0241
11.8552
11.6577
11.4305
11.1635
10.8381
10.4131
9.74236
119.516
1087.15
1021.64
114.21
6.87498
7.81762
8.41029
8.87916
9.27103
9.5954
9.85167
10.025
10.0997
10.0811
9.97799
9.8336
9.77212
9.88704
10.2219
10.7033
11.2093
11.6482
11.9705
12.1723
12.2486
12.2394
12.1573
12.0263
11.8631
11.6729
11.4466
11.1763
10.8455
10.4106
9.71906
119.57
1087.23
1021.64
114.213
6.78931
7.73936
8.34191
8.82559
9.23894
9.59289
9.88369
10.0981
10.2233
10.2445
10.1692
10.0159
9.85462
9.82933
10.0021
10.3788
10.8362
11.2605
11.6115
11.8839
12.0609
12.1308
12.1091
12.0102
11.8571
11.6693
11.4477
11.1806
10.8488
10.4125
9.7208
119.594
1087.24
1021.65
114.215
6.68492
7.64344
8.2553
8.75239
9.18496
9.56466
9.88849
10.1505
10.33
10.4077
10.388
10.2687
10.0761
9.91846
9.9169
10.1353
10.5132
10.9186
11.2773
11.5662
11.7767
11.902
11.9442
11.9105
11.8121
11.654
11.4441
11.1832
10.8631
10.4384
9.76118
119.597
1087.23
1021.64
114.212
6.56591
7.53468
8.15657
8.66743
9.11936
9.52498
9.88278
10.1845
10.4178
10.5683
10.6198
10.5713
10.4191
10.1927
10.0235
10.0327
10.2699
10.6364
11.004
11.3125
11.5468
11.7038
11.784
11.7897
11.7295
11.606
11.4223
11.1816
10.8721
10.4599
9.79926
119.596
1087.22
1021.63
114.211
6.43498
7.41547
8.0476
8.57134
9.04002
9.4669
9.85152
10.1876
10.4685
10.6805
10.8153
10.8599
10.8073
10.6503
10.4044
10.1616
10.1406
10.3324
10.6763
11.027
11.3127
11.5165
11.6389
11.6845
11.6618
11.568
11.41
11.1874
10.8969
10.5061
9.87834
119.572
1087.15
1021.62
114.211
6.31308
7.30172
7.94126
8.47603
8.96006
9.40675
9.81567
10.1818
10.498
10.7544
10.9472
11.0686
11.1091
11.0603
10.915
10.6809
10.4129
10.3019
10.4075
10.6938
11.016
11.2836
11.4701
11.5724
11.593
11.5431
11.4126
11.216
10.9468
10.5794
9.98627
119.532
1087.06
1021.63
114.219
6.20613
7.1936
7.83731
8.38231
8.88082
9.34523
9.7745
10.1635
10.5058
10.7985
11.0308
11.2007
11.3016
11.3269
11.2719
11.1281
10.8964
10.6048
10.4489
10.5233
10.7671
11.0558
11.292
11.4455
11.5139
11.5024
11.4089
11.2366
10.9878
10.6412
10.078
119.52
1087.06
1021.64
114.228
6.09837
7.07791
7.72227
8.276
8.78827
9.26988
9.71914
10.1308
10.4983
10.8151
11.0827
11.2886
11.4293
11.4995
11.4956
11.4147
11.248
11.0004
10.7375
10.6023
10.7056
10.9251
11.1694
11.3551
11.4559
11.4694
11.4017
11.2502
11.0199
10.6924
10.156
119.523
1087.07
1021.66
114.237
5.98457
6.95324
7.59644
8.15724
8.68096
9.17652
9.6417
10.0719
10.4617
10.8053
11.0994
11.3409
11.5173
11.6247
11.6603
11.6221
11.5015
11.2934
11.0295
10.8022
10.7484
10.8918
11.0899
11.2746
11.395
11.4329
11.3872
11.2519
11.0361
10.7268
10.2189
119.529
1087.08
1021.67
114.246
5.86412
6.82016
7.46067
8.02712
8.56033
9.06738
9.54592
9.99204
10.4009
10.7682
11.0902
11.3597
11.5711
11.7151
11.7883
11.7896
11.7133
11.5509
11.314
11.0678
10.9119
10.9265
11.0931
11.2602
11.3796
11.4268
11.3913
11.2719
11.0705
10.7745
10.2884
119.535
1087.09
1021.69
114.256
5.74527
6.68734
7.32385
7.89411
8.434
8.94922
9.43807
9.89765
10.3237
10.7117
11.0575
11.3535
11.5919
11.7654
11.871
11.9084
11.874
11.7595
11.5672
11.3358
11.155
11.094
11.1524
11.2769
11.384
11.4297
11.3989
11.2862
11.0953
10.8152
10.3548
119.543
1087.11
1021.7
114.265
5.62506
6.55239
7.18417
7.75677
8.30071
8.82108
9.31789
9.79007
10.2338
10.6437
11.0131
11.3331
11.5952
11.7934
11.9256
11.9929
11.9942
11.9224
11.7755
11.5745
11.3814
11.2775
11.2805
11.3505
11.4263
11.4603
11.4275
11.3185
11.1351
10.8651
10.422
119.546
1087.11
1021.72
114.276
5.51267
6.42374
7.04911
7.62093
8.16424
8.68434
9.18405
9.66515
10.1248
10.5566
10.9517
11.298
11.585
11.8063
11.9611
12.0526
12.0819
12.0456
11.9401
11.7762
11.5942
11.4585
11.4144
11.4422
11.489
11.5059
11.4663
11.358
11.1782
10.9146
10.4836
119.558
1087.13
1021.74
114.288
5.40323
6.29932
6.91782
7.486
8.02347
8.53677
9.03245
9.51584
9.98617
10.4373
10.8573
11.2294
11.5415
11.7875
11.9639
12.075
12.1236
12.112
12.0387
11.9133
11.7651
11.6408
11.5792
11.5751
11.5889
11.5808
11.5238
11.4052
11.2217
10.9581
10.5289
119.574
1087.16
1021.76
114.3
5.301
6.18447
6.79636
7.35775
7.88384
8.38359
8.86738
9.34449
9.81766
10.283
10.7277
11.1317
11.4778
11.7546
11.9577
12.0911
12.1584
12.1622
12.1057
12.0014
11.8776
11.7732
11.7153
11.6991
11.6936
11.6662
11.5939
11.4647
11.2745
11.007
10.5762
119.577
1087.16
1021.77
114.315
5.21498
6.09247
6.70022
7.25328
7.76545
8.24878
8.71618
9.18011
9.64775
10.1193
10.5827
11.0166
11.4002
11.7165
11.9569
12.125
12.2224
12.2498
12.2117
12.119
11.9982
11.8878
11.8168
11.7843
11.7645
11.7266
11.6478
11.5161
11.3258
11.0588
10.6297
119.577
1087.16
1021.81
114.339
5.16554
6.02973
6.62896
7.16983
7.66695
8.13364
8.58327
9.0304
9.48595
9.95381
10.4237
10.8756
11.2912
11.6485
11.9332
12.1437
12.2818
12.3448
12.3374
12.2661
12.1525
12.0328
11.9424
11.8906
11.8555
11.8054
11.7177
11.5802
11.3854
11.1135
10.6752
119.579
1087.17
1021.85
114.365
5.12866
5.97776
6.569
7.09611
7.57731
8.02827
8.46262