/*--------------------------------*- C++ -*----------------------------------*\
  =========                 |
  \\      /  F ield         | OpenFOAM: The Open Source CFD Toolbox
   \\    /   O peration     | Website:  https://openfoam.org
    \\  /    A nd           | Version:  11
     \\/     M anipulation  |
\*---------------------------------------------------------------------------*/
FoamFile
{
    format      ascii;
    class       surfaceScalarField;
    location    "800";
    object      phi;
}
// * * * * * * * * * * * * * * * * * * * * * * * * * * * * * * * * * * * * * //

dimensions      [1 0 -1 0 0 0 0];

internalField   nonuniform List<scalar> 
228225
(
-3.20443e-06
1.64154e-06
1.56283e-06
-7.40135e-06
1.28337e-06
2.91349e-06
-1.02446e-05
-2.94477e-07
3.13764e-06
-1.14063e-05
-1.95856e-06
3.12022e-06
-1.06195e-05
-3.80417e-06
3.01735e-06
-8.27022e-06
-5.25259e-06
2.90327e-06
-4.82516e-06
-6.26556e-06
2.82046e-06
-7.57507e-07
-6.85726e-06
2.78955e-06
3.65302e-06
-7.19239e-06
2.78182e-06
8.23126e-06
-7.34602e-06
2.76774e-06
1.28397e-05
-7.36143e-06
2.75293e-06
1.74072e-05
-7.30655e-06
2.73905e-06
2.18215e-05
-7.14e-06
2.72568e-06
2.60393e-05
-6.92784e-06
2.70995e-06
3.00128e-05
-6.6671e-06
2.69356e-06
3.36936e-05
-6.35916e-06
2.67834e-06
3.70418e-05
-6.01226e-06
2.66401e-06
4.00222e-05
-5.63065e-06
2.65027e-06
4.26001e-05
-5.2161e-06
2.63814e-06
4.47849e-05
-4.80342e-06
2.61861e-06
4.65432e-05
-4.3674e-06
2.60904e-06
4.7727e-05
-3.78702e-06
2.60324e-06
4.84226e-05
-3.28974e-06
2.5941e-06
4.85629e-05
-2.73214e-06
2.59183e-06
4.80829e-05
-2.11605e-06
2.59596e-06
4.69817e-05
-1.50324e-06
2.60443e-06
4.52119e-05
-8.49017e-07
2.61881e-06
4.25067e-05
6.25633e-08
2.64256e-06
3.91274e-05
7.04639e-07
2.67469e-06
3.4912e-05
1.49789e-06
2.71747e-06
2.97215e-05
2.4265e-06
2.76393e-06
2.3429e-05
3.43458e-06
2.85782e-06
1.60414e-05
4.43303e-06
2.95449e-06
7.48585e-06
5.58358e-06
2.97191e-06
5.63626e-06
1.84958e-06
2.4524e-07
3.99723e-07
9.96448e-07
4.75201e-07
-8.99399e-07
1.95268e-06
1.67025e-06
-3.65641e-06
2.16677e-06
3.89494e-06
-6.29956e-06
2.1162e-06
6.60552e-06
-8.49343e-06
1.97858e-06
9.43487e-06
-9.9095e-06
1.82748e-06
1.21791e-05
-1.07215e-05
1.71156e-06
1.48062e-05
-1.1127e-05
1.64257e-06
1.73426e-05
-1.12913e-05
1.56244e-06
1.97673e-05
-1.12669e-05
1.49616e-06
2.2049e-05
-1.10803e-05
1.43709e-06
2.41668e-05
-1.08343e-05
1.40988e-06
2.61382e-05
-1.05008e-05
1.38926e-06
2.79309e-05
-1.00911e-05
1.37056e-06
2.95325e-05
-9.62632e-06
1.35759e-06
3.09369e-05
-9.11319e-06
1.34956e-06
3.21357e-05
-8.55692e-06
1.3458e-06
3.31187e-05
-7.96004e-06
1.34638e-06
3.38581e-05
-7.30721e-06
1.35164e-06
3.43011e-05
-6.60028e-06
1.35375e-06
3.44447e-05
-5.87358e-06
1.36258e-06
3.44235e-05
-5.14423e-06
1.37836e-06
3.4082e-05
-4.35552e-06
1.40724e-06
3.34188e-05
-3.51447e-06
1.44549e-06
3.24599e-05
-2.6422e-06
1.48499e-06
3.12357e-05
-1.80506e-06
1.52597e-06
2.96621e-05
-8.6594e-07
1.59049e-06
2.75256e-05
5.15812e-07
1.68323e-06
2.51054e-05
1.34242e-06
1.78231e-06
2.21963e-05
2.49873e-06
1.90822e-06
1.86902e-05
3.88934e-06
2.04315e-06
1.43779e-05
5.5714e-06
2.17538e-06
9.18806e-06
7.32703e-06
2.29579e-06
3.47314e-06
9.06067e-06
2.23771e-06
7.79674e-06
1.31265e-06
5.70304e-07
-8.42751e-07
6.72033e-07
2.62656e-06
-4.18403e-06
1.22823e-06
5.61757e-06
-7.94012e-06
1.29259e-06
8.66322e-06
-1.05804e-05
1.23506e-06
1.11062e-05
-1.21071e-05
1.17057e-06
1.29648e-05
-1.28378e-05
1.06969e-06
1.4305e-05
-1.31264e-05
1.06471e-06
1.54111e-05
-1.3223e-05
9.89872e-07
1.63414e-05
-1.31816e-05
9.60045e-07
1.71499e-05
-1.30153e-05
9.3988e-07
1.78978e-05
-1.2755e-05
9.26686e-07
1.85591e-05
-1.24155e-05
9.19943e-07
1.91518e-05
-1.20112e-05
9.17695e-07
1.96894e-05
-1.15469e-05
9.18044e-07
2.01704e-05
-1.10272e-05
9.19881e-07
2.05897e-05
-1.04553e-05
9.22787e-07
2.09397e-05
-9.83367e-06
9.26697e-07
2.12121e-05
-9.16466e-06
9.32141e-07
2.14033e-05
-8.44068e-06
9.42258e-07
2.14467e-05
-7.61103e-06
9.67348e-07
2.13213e-05
-6.7427e-06
9.94434e-07
2.09935e-05
-5.83087e-06
1.01438e-06
2.05231e-05
-4.93063e-06
1.04545e-06
1.99101e-05
-3.98943e-06
1.08791e-06
1.91583e-05
-3.02823e-06
1.13779e-06
1.82628e-05
-2.10377e-06
1.19414e-06
1.71544e-05
-1.02876e-06
1.27117e-06
1.59522e-05
3.44692e-07
1.37322e-06
1.45801e-05
1.23734e-06
1.47719e-06
1.28851e-05
2.58313e-06
1.61043e-06
1.07485e-05
4.2591e-06
1.76677e-06
8.07294e-06
6.32342e-06
1.92347e-06
4.82425e-06
8.53197e-06
2.04364e-06
1.53817e-06
1.04259e-05
1.92075e-06
8.32862e-06
1.00629e-06
6.74536e-07
-1.95276e-06
4.35334e-07
2.62547e-06
-6.80139e-06
6.66302e-07
4.74415e-06
-1.07033e-05
6.44413e-07
6.43261e-06
-1.28583e-05
5.89369e-07
7.63443e-06
-1.38698e-05
5.6086e-07
8.56014e-06
-1.43363e-05
5.72708e-07
9.41864e-06
-1.45372e-05
5.52249e-07
1.02218e-05
-1.45689e-05
5.42704e-07
1.09753e-05
-1.44763e-05
5.41084e-07
1.17007e-05
-1.42818e-05
5.4114e-07
1.23993e-05
-1.39955e-05
5.41817e-07
1.30677e-05
-1.3627e-05
5.43127e-07
1.36931e-05
-1.31815e-05
5.44903e-07
1.42623e-05
-1.26634e-05
5.47249e-07
1.47609e-05
-1.20762e-05
5.50326e-07
1.5174e-05
-1.1423e-05
5.54498e-07
1.54869e-05
-1.07067e-05
5.60135e-07
1.56853e-05
-9.93053e-06
5.67454e-07
1.5767e-05
-9.09848e-06
5.76072e-07
1.57859e-05
-8.21607e-06
5.8605e-07
1.57243e-05
-7.28238e-06
6.01239e-07
1.55302e-05
-6.2779e-06
6.41158e-07
1.51911e-05
-5.26315e-06
6.71579e-07
1.47155e-05
-4.22682e-06
7.12902e-07
1.41113e-05
-3.19352e-06
7.69464e-07
1.33686e-05
-2.20556e-06
8.44477e-07
1.24878e-05
-1.09006e-06
9.42043e-07
1.15241e-05
2.39691e-07
1.06858e-06
1.04113e-05
1.15615e-06
1.19397e-06
9.12229e-06
2.51917e-06
1.35292e-06
7.55093e-06
4.32045e-06
1.50995e-06
5.55867e-06
6.67267e-06
1.64294e-06
3.11639e-06
9.22736e-06
1.74682e-06
7.6276e-07
1.11745e-05
1.60496e-06
8.3447e-06
7.4668e-07
6.15989e-07
-2.86387e-06
2.95014e-07
2.0044e-06
-8.61245e-06
4.2256e-07
3.40222e-06
-1.25127e-05
4.11509e-07
4.59116e-06
-1.44361e-05
3.88837e-07
5.64697e-06
-1.52998e-05
3.74112e-07
6.62017e-06
-1.56755e-05
3.66047e-07
7.53776e-06
-1.57958e-05
3.4098e-07
8.39691e-06
-1.57581e-05
3.30069e-07
9.19253e-06
-1.55953e-05
3.23399e-07
9.91813e-06
-1.53267e-05
3.19263e-07
1.05708e-05
-1.49659e-05
3.17713e-07
1.11468e-05
-1.4522e-05
3.19031e-07
1.16453e-05
-1.39998e-05
3.19776e-07
1.20637e-05
-1.34028e-05
3.20985e-07
1.23985e-05
-1.27345e-05
3.23423e-07
1.2646e-05
-1.19982e-05
3.27716e-07
1.28022e-05
-1.11975e-05
3.34514e-07
1.28639e-05
-1.03367e-05
3.44481e-07
1.28183e-05
-9.41125e-06
3.58346e-07
1.2655e-05
-8.42853e-06
3.75747e-07
1.23913e-05
-7.40999e-06
3.91209e-07
1.20896e-05
-6.38661e-06
4.10436e-07
1.1728e-05
-5.34282e-06
4.41176e-07
1.13042e-05
-4.2857e-06
4.82612e-07
1.08176e-05
-3.24515e-06
5.38201e-07
1.02487e-05
-2.2482e-06
6.11512e-07
9.60422e-06
-1.1513e-06
7.05639e-07
8.93258e-06
8.93041e-08
8.21972e-07
8.13924e-06
1.00666e-06
9.42756e-07
7.17888e-06
2.37933e-06
1.10011e-06
5.97417e-06
4.26398e-06
1.26109e-06
4.41032e-06
6.82244e-06
1.414e-06
2.45291e-06
9.67001e-06
1.51467e-06
6.04922e-07
1.16557e-05
1.36662e-06
8.34703e-06
6.02592e-07
5.80448e-07
-3.6198e-06
1.75382e-07
1.66864e-06
-9.91654e-06
2.15827e-07
2.74123e-06
-1.37763e-05
1.90967e-07
3.64262e-06
-1.55117e-05
1.74196e-07
4.40393e-06
-1.62334e-05
1.72255e-07
5.07799e-06
-1.65287e-05
1.79128e-07
5.69405e-06
-1.66023e-05
1.90443e-07
6.27508e-06
-1.65314e-05
1.92214e-07
6.82396e-06
-1.63321e-05
1.87896e-07
7.34387e-06
-1.60258e-05
1.79242e-07
7.83542e-06
-1.5624e-05
1.66494e-07
8.29199e-06
-1.51332e-05
1.54579e-07
8.70323e-06
-1.45581e-05
1.47101e-07
9.06225e-06
-1.39028e-05
1.41004e-07
9.36246e-06
-1.31717e-05
1.36953e-07
9.59862e-06
-1.23695e-05
1.35192e-07
9.7671e-06
-1.15021e-05
1.36072e-07
9.86629e-06
-1.05758e-05
1.39901e-07
9.90687e-06
-9.60007e-06
1.4821e-07
9.90288e-06
-8.58938e-06
1.64803e-07
9.84974e-06
-7.55488e-06
1.98001e-07
9.73191e-06
-6.50351e-06
2.34703e-07
9.55303e-06
-5.44135e-06
2.7738e-07
9.31458e-06
-4.37672e-06
3.2944e-07
9.01038e-06
-3.33172e-06
3.9073e-07
8.6185e-06
-2.32219e-06
4.65836e-07
8.13995e-06
-1.22908e-06
5.5629e-07
7.58801e-06
-2.42638e-08
6.65472e-07
6.91795e-06
9.00104e-07
7.76578e-07
6.08786e-06
2.2963e-06
9.13074e-07
5.00974e-06
4.27036e-06
1.0717e-06
3.60364e-06
6.9891e-06
1.23941e-06
1.94187e-06
9.99608e-06
1.33565e-06
4.60221e-07
1.1962e-05
1.17526e-06
8.30898e-06
4.98259e-07
3.94679e-07
-4.12427e-06
1.09711e-07
1.16927e-06
-1.08233e-05
1.32099e-07
1.96705e-06
-1.46944e-05
1.20352e-07
2.7129e-06
-1.63637e-05
1.06107e-07
3.42682e-06
-1.70416e-05
9.4297e-08
4.12035e-06
-1.73066e-05
8.42698e-08
4.79223e-06
-1.735e-05
7.57954e-08
5.4374e-06
-1.7246e-05
6.94772e-08
6.05005e-06
-1.70093e-05
6.45231e-08
6.62867e-06
-1.66653e-05
6.0822e-08
7.16714e-06
-1.62212e-05
5.86931e-08
7.6612e-06
-1.56812e-05
5.39046e-08
8.10685e-06
-1.50508e-05
4.70065e-08
8.49606e-06
-1.43348e-05
4.27025e-08
8.82185e-06
-1.35383e-05
4.0843e-08
9.07878e-06
-1.26679e-05
4.14416e-08
9.26366e-06
-1.17315e-05
4.45124e-08
9.37379e-06
-1.07357e-05
4.97234e-08
9.41757e-06
-9.69791e-06
5.40357e-08
9.40099e-06
-8.63838e-06
6.55462e-08
9.32225e-06
-7.56303e-06
8.68487e-08
9.18269e-06
-6.47783e-06
1.13853e-07
8.98713e-06
-5.39206e-06
1.46225e-07
8.74016e-06
-4.31477e-06
1.84975e-07
8.43569e-06
-3.2603e-06
2.33002e-07
8.0419e-06
-2.21981e-06
2.91359e-07
7.56018e-06
-1.11604e-06
3.68638e-07
7.00578e-06
6.43339e-08
4.65748e-07
6.3423e-06
9.94046e-07
5.69484e-07
5.54786e-06
2.39656e-06
6.94113e-07
4.55017e-06
4.42698e-06
8.40998e-07
3.24581e-06
7.28359e-06
1.00981e-06
1.73514e-06
1.03745e-05
1.13221e-06
4.29024e-07
1.22636e-05
1.00446e-06
8.33588e-06
4.02129e-07
3.72258e-07
-4.5505e-06
5.39028e-08
1.04358e-06
-1.1548e-05
5.33276e-08
1.72137e-06
-1.54171e-05
4.4809e-08
2.33137e-06
-1.70147e-05
4.09901e-08
2.89446e-06
-1.76434e-05
3.87242e-08
3.4295e-06
-1.78775e-05
3.5847e-08
3.94414e-06
-1.7896e-05
3.13689e-08
4.44136e-06
-1.77688e-05
2.55312e-08
4.91965e-06
-1.75057e-05
1.80903e-08
5.37231e-06
-1.71276e-05
9.60346e-09
5.79432e-06
-1.66438e-05
6.35123e-10
6.18257e-06
-1.60611e-05
-8.38076e-09
6.5337e-06
-1.53849e-05
-1.69855e-08
6.84549e-06
-1.46208e-05
-2.58121e-08
7.11571e-06
-1.37744e-05
-3.413e-08
7.34177e-06
-1.28529e-05
-4.11473e-08
7.52131e-06
-1.18651e-05
-4.59338e-08
7.65549e-06
-1.08231e-05
-4.68184e-08
7.7381e-06
-9.74105e-06
-3.9508e-08
7.76235e-06
-8.62997e-06
-3.26887e-08
7.73042e-06
-7.50423e-06
-2.6896e-08
7.64858e-06
-6.38066e-06
-1.53551e-08
7.52358e-06
-5.27076e-06
3.6728e-09
7.36215e-06
-4.18461e-06
3.12355e-08
7.15693e-06
-3.12414e-06
6.90285e-08
6.87525e-06
-2.05818e-06
1.20001e-07
6.50888e-06
-9.3872e-07
1.89015e-07
6.05763e-06
2.35798e-07
2.79745e-07
5.48709e-06
1.18309e-06
3.81446e-07
4.78476e-06
2.58589e-06
5.12941e-07
3.89101e-06
4.65351e-06
6.67162e-07
2.73293e-06
7.61177e-06
8.2985e-07
1.4062e-06
1.07634e-05
9.37745e-07
3.08986e-07
1.25315e-05
8.29309e-07
8.32415e-06
3.20714e-07
2.75214e-07
-4.85819e-06
3.23996e-08
8.19308e-07
-1.21308e-05
3.86572e-08
1.39466e-06
-1.60298e-05
3.73376e-08
1.94986e-06
-1.76018e-05
3.1904e-08
2.49008e-06
-1.82099e-05
2.62292e-08
3.01836e-06
-1.84263e-05
2.05033e-08
3.53217e-06
-1.84244e-05
1.44922e-08
4.02624e-06
-1.82711e-05
8.22034e-09
4.49587e-06
-1.79767e-05
1.34789e-09
4.93622e-06
-1.75619e-05
-6.08705e-09
5.34444e-06
-1.70379e-05
-1.41576e-08
5.71878e-06
-1.64127e-05
-2.27018e-08
6.05646e-06
-1.56912e-05
-3.14658e-08
6.35496e-06
-1.48791e-05
-4.01873e-08
6.61217e-06
-1.39831e-05
-4.86057e-08
6.82583e-06
-1.30101e-05
-5.64622e-08
6.99361e-06
-1.19693e-05
-6.35757e-08
7.11762e-06
-1.0877e-05
-7.01047e-08
7.19994e-06
-9.74959e-06
-7.38003e-08
7.23768e-06
-8.59187e-06
-7.58614e-08
7.21965e-06
-7.41319e-06
-7.30468e-08
7.13869e-06
-6.23403e-06
-6.57101e-08
6.99823e-06
-5.07746e-06
-5.28693e-08
6.80447e-06
-3.95746e-06
-3.34294e-08
6.55356e-06
-2.86736e-06
-5.91291e-09
6.22663e-06
-1.76363e-06
3.2336e-08
5.82898e-06
-6.26695e-07
8.55829e-08
5.48754e-06
4.18966e-07
1.58226e-07
4.99397e-06
1.43277e-06
2.4384e-07
4.31927e-06
2.90073e-06
3.59789e-07
3.43106e-06
5.03538e-06
5.06283e-07
2.34545e-06
8.02821e-06
6.69101e-07
1.20153e-06
1.11268e-05
7.80423e-07
2.8592e-07
1.27561e-05
6.90941e-07
8.34991e-06
2.60159e-07
2.69285e-07
-5.1419e-06
1.43564e-08
7.48829e-07
-1.26317e-05
2.13397e-08
1.2319e-06
-1.65383e-05
2.53418e-08
1.6803e-06
-1.80741e-05
2.38156e-08
2.10829e-06
-1.86582e-05
2.02437e-08
2.52359e-06
-1.88571e-05
1.55155e-08
2.92775e-06
-1.88383e-05
9.7763e-09
3.31395e-06
-1.86605e-05
3.21759e-09
3.68527e-06
-1.83437e-05
-4.37895e-09
4.04284e-06
-1.79066e-05
-1.28425e-08
4.38508e-06
-1.73579e-05
-2.22528e-08
4.70927e-06
-1.67045e-05
-3.24718e-08
5.01486e-06
-1.59535e-05
-4.33124e-08
5.30172e-06
-1.51115e-05
-5.45004e-08
5.56914e-06
-1.41848e-05
-6.56642e-08
5.81544e-06
-1.31802e-05
-7.6247e-08
6.03689e-06
-1.21055e-05
-8.53653e-08
6.22221e-06
-1.09708e-05
-9.15914e-08
6.35834e-06
-9.7883e-06
-9.74473e-08
6.44179e-06
-8.57277e-06
-1.02594e-07
6.47048e-06
-7.33506e-06
-1.06844e-07
6.44798e-06
-6.10396e-06
-1.07605e-07
6.37461e-06
-4.90095e-06
-1.03193e-07
6.24859e-06
-3.73909e-06
-9.23897e-08
6.06518e-06
-2.61035e-06
-7.36561e-08
5.80583e-06
-1.45987e-06
-4.44608e-08
5.48071e-06
-2.9992e-07
-1.70042e-09
5.22275e-06
6.23511e-07
5.33591e-08
4.76421e-06
1.7636e-06
1.27658e-07
4.1292e-06
3.30906e-06
2.26604e-07
3.30726e-06
5.50088e-06
3.56368e-07
2.31804e-06
8.50432e-06
5.13043e-07
1.2495e-06
1.15595e-05
6.35835e-07
3.42882e-07
1.30791e-05
5.83491e-07
8.47161e-06
2.21173e-07
2.13637e-07
-5.37011e-06
1.45107e-08
6.20597e-07
-1.3074e-05
3.52895e-08
1.04027e-06
-1.70023e-05
4.43422e-08
1.44422e-06
-1.85195e-05
4.14795e-08
1.83931e-06
-1.90892e-05
3.59643e-08
2.22756e-06
-1.92752e-05
2.97824e-08
2.60769e-06
-1.92419e-05
2.34535e-08
2.97206e-06
-1.90418e-05
1.68901e-08
3.32107e-06
-1.87027e-05
1.00287e-08
3.65275e-06
-1.8241e-05
2.67938e-09
3.96605e-06
-1.76659e-05
-5.35004e-09
4.26043e-06
-1.69848e-05
-1.40701e-08
4.53625e-06
-1.62059e-05
-2.34439e-08
4.7942e-06
-1.5336e-05
-3.34876e-08
5.03479e-06
-1.43812e-05
-4.42551e-08
5.25811e-06
-1.33477e-05
-5.57906e-08
5.46294e-06
-1.22422e-05
-6.80834e-08
5.64593e-06
-1.10729e-05
-8.08731e-08
5.80331e-06
-9.85255e-06
-9.31577e-08
5.93233e-06
-8.59782e-06
-1.03995e-07
6.03609e-06
-7.32645e-06
-1.12406e-07
6.1059e-06
-6.05514e-06
-1.18667e-07
6.13554e-06
-4.80964e-06
-1.20977e-07
6.12107e-06
-3.60651e-06
-1.18155e-07
6.05079e-06
-2.43129e-06
-1.08814e-07
5.91543e-06
-1.23375e-06
-9.08018e-08
5.72103e-06
-4.38755e-08
-6.16926e-08
5.45538e-06
9.11197e-07
-2.20904e-08
5.01221e-06
2.172e-06
3.46943e-08
4.37818e-06
3.83082e-06
1.12189e-07
3.50257e-06
6.1586e-06
2.17809e-07
2.40359e-06
9.24887e-06
3.54365e-07
1.24913e-06
1.22379e-05
4.75961e-07
3.109e-07
1.3556e-05
4.61228e-07
8.61456e-06
1.67947e-07
2.13901e-07
-5.59833e-06
1.42466e-08
5.65984e-07
-1.34702e-05
4.4097e-08
9.06378e-07
-1.73999e-05
5.71723e-08
1.22272e-06
-1.88908e-05
5.49627e-08
1.52885e-06
-1.94444e-05
4.90719e-08
1.8294e-06
-1.96179e-05
4.22035e-08
2.12357e-06
-1.95712e-05
3.51488e-08
2.40895e-06
-1.93552e-05
2.79751e-08
2.68352e-06
-1.8998e-05
2.06469e-08
2.94624e-06
-1.85167e-05
1.29768e-08
3.19801e-06
-1.79225e-05
4.80899e-09
3.44085e-06
-1.72238e-05
-3.85358e-09
3.67596e-06
-1.6428e-05
-1.30337e-08
3.90463e-06
-1.55419e-05
-2.27995e-08
4.12809e-06
-1.45714e-05
-3.32455e-08
4.3467e-06
-1.35219e-05
-4.44581e-08
4.56072e-06
-1.23998e-05
-5.64754e-08
4.76905e-06
-1.1212e-05
-6.92737e-08
4.96698e-06
-9.96785e-06
-8.26596e-08
5.1459e-06
-8.68058e-06
-9.61984e-08
5.29452e-06
-7.36575e-06
-1.09355e-07
5.39807e-06
-6.03951e-06
-1.19213e-07
5.44812e-06
-4.73113e-06
-1.286e-07
5.43817e-06
-3.46321e-06
-1.33388e-07
5.35378e-06
-2.21467e-06
-1.32283e-07
5.19559e-06
-9.52493e-07
-1.23108e-07
4.97866e-06
2.76228e-07
-1.03223e-07
4.67517e-06
1.28704e-06
-7.24012e-08
4.2564e-06
2.61663e-06
-2.592e-08
3.65139e-06
4.39685e-06
3.89136e-08
2.79058e-06
6.89401e-06
1.25354e-07
1.73762e-06
1.00704e-05
2.31356e-07
7.5042e-07
1.29042e-05
3.20795e-07
8.08892e-08
1.39153e-05
3.10179e-07
8.60038e-06
9.50705e-08
1.56959e-07
-5.78046e-06
2.50934e-08
4.44112e-07
-1.38274e-05
6.99632e-08
7.29137e-07
-1.77713e-05
8.63736e-08
1.00147e-06
-1.92459e-05
8.27338e-08
1.26977e-06
-1.97879e-05
7.51161e-08
1.5362e-06
-1.99513e-05
6.69125e-08
1.79869e-06
-1.98928e-05
5.90628e-08
2.05442e-06
-1.96627e-05
5.17462e-08
2.30121e-06
-1.92896e-05
4.48322e-08
2.53715e-06
-1.87907e-05
3.80437e-08
2.76077e-06
-1.81773e-05
3.11496e-08
2.97156e-06
-1.74586e-05
2.40305e-08
3.17031e-06
-1.66433e-05
1.65471e-08
3.35872e-06
-1.57388e-05
8.50201e-09
3.53959e-06
-1.4752e-05
-3.60005e-10
3.7162e-06
-1.36882e-05
-1.03316e-08
3.89089e-06
-1.25528e-05
-2.16807e-08
4.06318e-06
-1.13497e-05
-3.45888e-08
4.23017e-06
-1.00859e-05
-4.89949e-08
4.38567e-06
-8.77147e-06
-6.46403e-08
4.52183e-06
-7.42058e-06
-8.13682e-08
4.63177e-06
-6.05122e-06
-9.82596e-08
4.6939e-06
-4.68303e-06
-1.10276e-07
4.68444e-06
-3.33331e-06
-1.20499e-07
4.56649e-06
-1.97031e-06
-1.2646e-07
4.3669e-06
-6.28234e-07
-1.24728e-07
4.21134e-06
5.44493e-07
-1.12763e-07
3.90548e-06
1.68197e-06
-8.91432e-08
3.47403e-06
3.09668e-06
-4.86834e-08
2.91624e-06
4.9424e-06
1.21512e-08
2.22753e-06
7.4885e-06
9.41192e-08
1.44463e-06
1.06666e-05
1.86637e-07
7.09674e-07
1.33849e-05
2.54139e-07
1.73085e-07
1.42153e-05
2.36478e-07
8.70504e-06
6.84211e-08
1.60919e-07
-5.97323e-06
3.1765e-08
4.06798e-07
-1.41603e-05
8.69618e-08
6.3402e-07
-1.81048e-05
1.0624e-07
8.46099e-07
-1.95606e-05
1.02596e-07
1.05505e-06
-2.00911e-05
9.42847e-08
1.26418e-06
-2.02457e-05
8.52183e-08
1.47255e-06
-2.01777e-05
7.6526e-08
1.67869e-06
-1.99373e-05
6.85016e-08
1.88146e-06
-1.95535e-05
6.11038e-08
2.08034e-06
-1.90437e-05
5.40823e-08
2.2752e-06
-1.84194e-05
4.72351e-08
2.46589e-06
-1.76898e-05
4.04635e-08
2.65208e-06
-1.68631e-05
3.36244e-08
2.83361e-06
-1.59469e-05
2.65e-08
3.01122e-06
-1.49484e-05
1.88049e-08
3.18755e-06
-1.38748e-05
1.0208e-08
3.36627e-06
-1.27319e-05
3.50299e-10
3.55179e-06
-1.15242e-05
-1.11203e-08
3.74659e-06
-1.02563e-05
-2.44068e-08
3.94731e-06
-8.9327e-06
-3.95195e-08
4.14246e-06
-7.55904e-06
-5.67212e-08
4.31426e-06
-6.1477e-06
-7.53433e-08
4.44444e-06
-4.71868e-06
-9.45621e-08
4.50383e-06
-3.28249e-06
-1.10231e-07
4.47217e-06
-1.81485e-06
-1.23827e-07
4.37176e-06
-3.96534e-07
-1.31316e-07
4.30834e-06
7.36859e-07
-1.2897e-07
4.05897e-06
2.04839e-06
-1.17071e-07
3.65775e-06
3.58761e-06
-8.97238e-08
3.11103e-06
5.53047e-06
-4.1365e-08
2.43934e-06
8.12611e-06
3.40523e-08
1.66903e-06
1.13081e-05
1.28851e-07
8.85489e-07
1.39642e-05
2.04251e-07
2.34495e-07
1.46606e-05
2.05654e-07
8.87473e-06
6.48004e-08
1.27342e-07
-6.14664e-06
4.59716e-08
3.25507e-07
-1.44737e-05
1.15208e-07
5.0869e-07
-1.84243e-05
1.36259e-07
6.84356e-07
-1.98676e-05
1.31283e-07
8.6334e-07
-2.03918e-05
1.21656e-07
1.047e-06
-2.05409e-05
1.11599e-07
1.23334e-06
-2.04664e-05
1.02279e-07
1.42069e-06
-2.02187e-05
9.40445e-08
1.60774e-06
-1.98273e-05
8.68049e-08
1.79384e-06
-1.93101e-05
8.02554e-08
1.97879e-06
-1.86785e-05
7.41713e-08
2.16255e-06
-1.7942e-05
6.84154e-08
2.345e-06
-1.71084e-05
6.27911e-08
2.52565e-06
-1.61845e-05
5.70127e-08
2.70338e-06
-1.51769e-05
5.07014e-08
2.87684e-06
-1.40917e-05
4.3416e-08
3.04565e-06
-1.29355e-05
3.47102e-08
3.21191e-06
-1.17146e-05
2.41759e-08
3.37896e-06
-1.04349e-05
1.14923e-08
3.55069e-06
-9.10098e-06
-3.48298e-09
3.72829e-06
-7.71549e-06
-2.11802e-08
3.90274e-06
-6.28102e-06
-4.1167e-08
4.05315e-06
-4.80669e-06
-6.24475e-08
4.16026e-06
-3.30595e-06
-8.36891e-08
4.22229e-06
-1.77382e-06
-1.03103e-07
4.22936e-06
-2.85637e-07
-1.18022e-07
4.15496e-06
9.35198e-07
-1.23999e-07
3.94972e-06
2.37695e-06
-1.23398e-07
3.58611e-06
4.06248e-06
-1.11338e-07
3.01284e-06
6.18728e-06
-8.36171e-08
2.22797e-06
8.94307e-06
-3.21702e-08
1.35161e-06
1.21408e-05
4.3609e-08
5.86015e-07
1.46175e-05
1.12241e-07
6.51727e-08
1.50527e-05
1.28607e-07
8.91249e-06
2.74128e-08
1.11452e-07
-6.31616e-06
5.79716e-08
2.3672e-07
-1.47352e-05
1.36211e-07
3.30625e-07
-1.86761e-05
1.57888e-07
4.24967e-07
-2.01143e-05
1.52298e-07
5.28792e-07
-2.06378e-05
1.42131e-07
6.42831e-07
-2.07867e-05
1.31726e-07
7.64779e-07
-2.07106e-05
1.22252e-07
8.93087e-07
-2.04611e-05
1.14061e-07
1.02632e-06
-2.00677e-05
1.07096e-07
1.16388e-06
-1.95487e-05
1.01034e-07
1.30561e-06
-1.89159e-05
9.5648e-08
1.4515e-06
-1.81787e-05
9.08058e-08
1.60163e-06
-1.73448e-05
8.63071e-08
1.75604e-06
-1.64208e-05
8.18537e-08
1.91445e-06
-1.54123e-05
7.70383e-08
2.0757e-06
-1.43243e-05
7.13562e-08
2.23751e-06
-1.31615e-05
6.42466e-08
2.39715e-06
-1.19295e-05
5.51631e-08
2.55334e-06
-1.06348e-05
4.36983e-08
2.70792e-06
-9.28532e-06
2.97399e-08
2.86553e-06
-7.88584e-06
1.27226e-08
3.02627e-06
-6.43449e-06
-7.29885e-09
3.17809e-06
-4.92852e-06
-3.00205e-08
3.29312e-06
-3.36649e-06
-5.45017e-08
3.34636e-06
-1.75148e-06
-7.56114e-08
3.31694e-06
-1.62266e-07
-9.39712e-08
3.18276e-06
1.17226e-06
-1.02902e-07
2.93575e-06
2.72818e-06
-1.04231e-07
2.56018e-06
4.53239e-06
-9.43622e-08
2.03857e-06
6.78153e-06
-7.26488e-08
1.38674e-06
9.63274e-06
-3.78415e-08
7.27904e-07
1.27905e-05
9.11103e-09
2.45875e-07
1.50499e-05
4.96367e-08
-2.61388e-09
1.52439e-05
5.73531e-08
8.90413e-06
5.74059e-09
3.94179e-08
-6.43224e-06
7.65633e-08
6.5247e-08
-1.49251e-05
1.63937e-07
6.49881e-08
-1.88614e-05
1.85452e-07
7.83309e-08
-2.03068e-05
1.79146e-07
1.11666e-07
-2.08397e-05
1.68563e-07
1.63885e-07
-2.09971e-05
1.58122e-07
2.33036e-07
-2.09288e-05
1.49037e-07
3.16857e-07
-2.06866e-05
1.41673e-07
4.13344e-07
-2.03001e-05
1.35925e-07
5.21523e-07
-1.97882e-05
1.31379e-07
6.40822e-07
-1.9163e-05
1.27757e-07
7.70689e-07
-1.84335e-05
1.2489e-07
9.10487e-07
-1.76072e-05
1.2254e-07
1.05953e-06
-1.66902e-05
1.2035e-07
1.21711e-06
-1.56878e-05
1.17837e-07
1.38251e-06
-1.46041e-05
1.14393e-07
1.55469e-06
-1.34431e-05
1.09319e-07
1.73166e-06
-1.22084e-05
1.01901e-07
1.91009e-06
-1.09048e-05
9.15283e-08
2.08623e-06
-9.53943e-06
7.79398e-08
2.2591e-06
-8.11925e-06
6.05063e-08
2.43197e-06
-6.64679e-06
3.93983e-08
2.60569e-06
-5.11722e-06
1.49355e-08
2.76695e-06
-3.51542e-06
-1.23814e-08
2.88494e-06
-1.8282e-06
-4.13054e-08
2.91155e-06
-1.22486e-07
-6.64331e-08
2.84088e-06
1.32484e-06
-8.19599e-08
2.63659e-06
3.02165e-06
-8.92309e-08
2.31704e-06
4.93405e-06
-8.21602e-08
1.92601e-06
7.2306e-06
-5.80912e-08
1.49827e-06
1.00798e-05
-1.93819e-08
1.04034e-06
1.32237e-05
2.463e-08
5.79442e-07
1.54521e-05
5.85826e-08
1.88131e-07
1.55698e-05
6.52701e-08
9.07213e-06
2.01366e-08
-1.43874e-08
-6.50494e-06
8.69907e-08
-1.27234e-07
-1.49865e-05
1.74187e-07
-2.52484e-07
-1.89321e-05
1.95913e-07
-3.48731e-07
-2.04028e-05
1.92231e-07
-4.07404e-07
-2.09646e-05
1.83574e-07
-4.33588e-07
-2.11451e-05
1.74134e-07
-4.30572e-07
-2.10975e-05
1.6564e-07
-4.02113e-07
-2.08745e-05
1.59385e-07
-3.50718e-07
-2.05067e-05
1.55192e-07
-2.7727e-07
-2.00142e-05
1.52529e-07
-1.82164e-07
-1.94092e-05
1.51118e-07
-6.58072e-08
-1.87007e-05
1.50823e-07
7.11971e-08
-1.78957e-05
1.51446e-07
2.27935e-07
-1.69997e-05
1.52662e-07
4.03152e-07
-1.6017e-05
1.53997e-07
5.95335e-07
-1.49511e-05
1.54826e-07
8.03243e-07
-1.3805e-05
1.53985e-07
1.02566e-06
-1.25814e-05
1.50597e-07
1.26113e-06
-1.12841e-05
1.43881e-07
1.50753e-06
-9.919e-06
1.33145e-07
1.76315e-06
-8.49215e-06
1.17244e-07
2.02973e-06
-7.00934e-06
9.59349e-08
2.31572e-06
-5.47267e-06
6.94303e-08
2.63031e-06
-3.86825e-06
3.82022e-08
2.93864e-06
-2.13935e-06
2.77523e-09
3.17771e-06
-3.2792e-07
-3.36805e-08
3.29965e-06
1.26359e-06
-6.07226e-08
3.24493e-06
3.16225e-06
-8.59145e-08
2.99519e-06
5.28115e-06
-9.73941e-08
2.56598e-06
7.74698e-06
-8.721e-08
2.00038e-06
1.06962e-05
-5.08527e-08
1.34916e-06
1.38731e-05
1.79819e-09
7.03372e-07
1.60509e-05
4.70152e-08
1.70257e-07
1.60337e-05
6.91957e-08
9.21709e-06
2.52926e-08
-7.21107e-08
-6.53051e-06
9.75946e-08
-2.25347e-07
-1.50157e-05
1.82429e-07
-3.73459e-07
-1.89828e-05
1.98796e-07
-4.9103e-07
-2.04829e-05
1.97576e-07
-5.77172e-07
-2.10701e-05
1.91587e-07
-6.35355e-07
-2.1273e-05
1.8607e-07
-6.65122e-07
-2.12486e-05
1.80924e-07
-6.6587e-07
-2.10502e-05
1.76446e-07
-6.38173e-07
-2.07084e-05
1.73919e-07
-5.82088e-07
-2.02434e-05
1.73057e-07
-4.98098e-07
-1.9667e-05
1.73722e-07
-3.87417e-07
-1.89873e-05
1.75921e-07
-2.51923e-07
-1.82108e-05
1.7959e-07
-9.40124e-08
-1.73421e-05
1.84539e-07
8.35626e-08
-1.6385e-05
1.90449e-07
2.78456e-07
-1.53423e-05
1.96216e-07
4.8779e-07
-1.4216e-05
2.01654e-07
7.09062e-07
-1.30083e-05
2.05561e-07
9.40384e-07
-1.1722e-05
2.06502e-07
1.1802e-06
-1.03622e-05
2.03331e-07
1.42883e-06
-8.93489e-06
1.94084e-07
1.69033e-06
-7.44871e-06
1.77851e-07
1.9741e-06
-5.91069e-06
1.54208e-07
2.29081e-06
-4.3082e-06
1.23212e-07
2.60855e-06
-2.54118e-06
8.40499e-08
2.87159e-06
-6.30096e-07
3.90967e-08
2.98428e-06
1.15116e-06
-3.133e-10
2.94212e-06
3.24733e-06
-4.29639e-08
2.6512e-06
5.64931e-06
-7.72931e-08
2.0936e-06
8.399e-06
-9.44706e-08
1.35452e-06
1.15196e-05
-8.43338e-08
6.4932e-07
1.46271e-05
-4.87507e-08
1.72358e-07
1.65407e-05
-1.2901e-08
-6.23908e-08
1.62567e-05
1.16782e-08
9.15092e-06
3.77619e-09
-1.30129e-07
-6.50716e-06
1.06688e-07
-3.39421e-07
-1.49823e-05
1.75824e-07
-5.23669e-07
-1.89872e-05
1.88626e-07
-6.56595e-07
-2.05386e-05
1.88683e-07
-7.52877e-07
-2.1159e-05
1.85138e-07
-8.16511e-07
-2.13899e-05
1.80545e-07
-8.503e-07
-2.13922e-05
1.77348e-07
-8.54211e-07
-2.12218e-05
1.75464e-07
-8.28448e-07
-2.09088e-05
1.7466e-07
-7.73735e-07
-2.04735e-05
1.75344e-07
-6.90959e-07
-1.99272e-05
1.77465e-07
-5.82001e-07
-1.92775e-05
1.8121e-07
-4.49808e-07
-1.85298e-05
1.86769e-07
-2.98108e-07
-1.7688e-05
1.94183e-07
-1.30925e-07
-1.67554e-05
2.0314e-07
4.68069e-08
-1.57341e-05
2.14076e-07
2.30596e-07
-1.46259e-05
2.26094e-07
4.16413e-07
-1.34324e-05
2.38341e-07
6.01925e-07
-1.2157e-05
2.49471e-07
7.85701e-07
-1.08039e-05
2.5792e-07
9.68888e-07
-9.37959e-06
2.61477e-07
1.15739e-06
-7.89516e-06
2.57903e-07
1.36234e-06
-6.36137e-06
2.4569e-07
1.58552e-06
-4.7554e-06
2.23964e-07
1.80869e-06
-2.9542e-06
1.89781e-07
1.97592e-06
-9.41816e-07
1.44433e-07
1.91909e-06
1.10893e-06
9.89879e-08
1.83441e-06
3.27275e-06
5.91866e-08
1.58351e-06
5.88871e-06
1.14391e-08
1.16736e-06
8.84067e-06
-2.55666e-08
6.81446e-07
1.20501e-05
-4.46586e-08
2.84927e-07
1.50633e-05
-3.97235e-08
6.99903e-08
1.67801e-05
-2.45034e-08
-4.86764e-09
1.63412e-05
-9.6519e-09
9.13426e-06
1.1791e-08
-1.64484e-07
-6.44293e-06
1.00214e-07
-3.77075e-07
-1.49154e-05
1.45632e-07
-5.36379e-07
-1.89878e-05
1.59908e-07
-6.23224e-07
-2.06136e-05
1.61766e-07
-6.62965e-07
-2.12816e-05
1.62337e-07
-6.65625e-07
-2.15488e-05
1.61534e-07
-6.3571e-07
-2.15822e-05
1.60057e-07
-5.7459e-07
-2.1442e-05
1.59033e-07
-4.84058e-07
-2.11584e-05
1.59059e-07
-3.66379e-07
-2.07517e-05
1.60498e-07
-2.23385e-07
-2.02334e-05
1.63218e-07
-5.75329e-08
-1.96105e-05
1.671e-07
1.27092e-07
-1.88873e-05
1.7286e-07
3.25234e-07
-1.80671e-05
1.8087e-07
5.3055e-07
-1.71524e-05
1.91655e-07
7.3657e-07
-1.61453e-05
2.05141e-07
9.36963e-07
-1.50476e-05
2.21272e-07
1.12667e-06
-1.38619e-05
2.39718e-07
1.30982e-06
-1.25997e-05
2.59549e-07
1.48061e-06
-1.12545e-05
2.79755e-07
1.63777e-06
-9.83463e-06
2.97873e-07
1.78504e-06
-8.35334e-06
3.10885e-07
1.92726e-06
-6.8194e-06
3.15786e-07
2.07383e-06
-5.21192e-06
3.09934e-07
2.27601e-06
-3.44544e-06
2.89041e-07
2.44381e-06
-1.3592e-06
2.49546e-07
2.36073e-06
9.97588e-07
1.94388e-07
2.32506e-06
3.16785e-06
1.40526e-07
2.16971e-06
5.93983e-06
1.04177e-07
1.95154e-06
8.99053e-06
6.82707e-08
1.67183e-06
1.22835e-05
4.63557e-08
1.30586e-06
1.53918e-05
3.73587e-08
8.54706e-07
1.71881e-05
4.30732e-08
3.78898e-07
1.67627e-05
5.41815e-08
9.45594e-06
5.72146e-08
-1.12159e-07
-6.40369e-06
7.29155e-08
-2.31482e-07
-1.48865e-05
9.04583e-08
-2.69361e-07
-1.90589e-05
1.08987e-07
-2.3326e-07
-2.07661e-05
1.16478e-07
-1.57047e-07
-2.14795e-05
1.21684e-07
-5.20292e-08
-2.17788e-05
1.25024e-07
7.99587e-08
-2.18412e-05
1.26991e-07
2.39729e-07
-2.173e-05
1.28302e-07
4.25526e-07
-2.14738e-05
1.2959e-07
6.35321e-07
-2.10925e-05
1.31043e-07
8.67195e-07
-2.05979e-05
1.32595e-07
1.11752e-06
-1.99959e-05
1.3508e-07
1.38149e-06
-1.92898e-05
1.38579e-07
1.65241e-06
-1.8482e-05
1.43999e-07
1.92237e-06
-1.75743e-05
1.51942e-07
2.1832e-06
-1.6569e-05
1.62924e-07
2.4273e-06
-1.5469e-05
1.77339e-07
2.6379e-06
-1.42685e-05
1.96053e-07
2.79973e-06
-1.29776e-05
2.16005e-07
2.91398e-06
-1.16112e-05
2.42442e-07
2.99261e-06
-1.01862e-05
2.72945e-07
3.05127e-06
-8.71528e-06
3.03269e-07
3.106e-06
-7.20271e-06
3.28549e-07
3.18619e-06
-5.63593e-06
3.43797e-07
3.35338e-06
-3.95759e-06
3.44907e-07
3.5535e-06
-1.88079e-06
3.21427e-07
3.62197e-06
6.63286e-07
2.65783e-07
3.62916e-06
2.95444e-06
2.06174e-07
3.46031e-06
5.96773e-06
1.40912e-07
3.10678e-06
9.24964e-06
9.43897e-08
2.57962e-06
1.27347e-05
7.59191e-08
1.89437e-06
1.60024e-05
7.46756e-08
1.13412e-06
1.78642e-05
8.41232e-08
4.12058e-07
1.73848e-05
9.99289e-08
9.78265e-06
8.53529e-08
-2.24456e-08
-6.41765e-06
3.64758e-08
5.568e-08
-1.49691e-05
4.52095e-09
2.44542e-07
-1.92566e-05
8.84103e-09
4.94838e-07
-2.10523e-05
3.58394e-08
7.71553e-07
-2.18123e-05
5.60984e-08
1.06114e-06
-2.2138e-05
6.95946e-08
1.36115e-06
-2.22189e-05
7.77804e-08
1.67504e-06
-2.21262e-05
8.23053e-08
2.00143e-06
-2.18848e-05
8.46068e-08
2.33762e-06
-2.15144e-05
8.57551e-08
2.68032e-06
-2.10269e-05
8.62937e-08
3.02474e-06
-2.04269e-05
8.66044e-08
3.36372e-06
-1.97161e-05
8.73826e-08
3.68754e-06
-1.88948e-05
8.90441e-08
3.98317e-06
-1.79623e-05
9.23733e-08
4.23317e-06
-1.69167e-05
9.76825e-08
4.41269e-06
-1.57525e-05
1.03927e-07
4.51288e-06
-1.44921e-05
1.23398e-07
4.53035e-06
-1.31502e-05
1.55153e-07
4.48607e-06
-1.17582e-05
1.91336e-07
4.40101e-06
-1.03306e-05
2.29397e-07
4.2937e-06
-8.87571e-06
2.6774e-07
4.18416e-06
-7.3976e-06
3.04446e-07
4.09165e-06
-5.88055e-06
3.37135e-07
4.02492e-06
-4.25361e-06
3.62754e-07
3.99633e-06
-2.22272e-06
3.70507e-07
3.96423e-06
3.54376e-07
3.41001e-07
3.8141e-06
2.81952e-06
2.85018e-07
3.44795e-06
6.15349e-06
1.80368e-07
2.79784e-06
9.79972e-06
9.99995e-08
1.97468e-06
1.34973e-05
6.05039e-08
1.17661e-06
1.67443e-05
5.6176e-08
5.513e-07
1.84244e-05
6.50776e-08
1.13581e-07
1.77429e-05
7.96515e-08
9.83195e-06
6.42854e-08
1.5595e-07
-6.55773e-06
-1.57248e-08