/*--------------------------------*- C++ -*----------------------------------*\
  =========                 |
  \\      /  F ield         | OpenFOAM: The Open Source CFD Toolbox
   \\    /   O peration     | Website:  https://openfoam.org
    \\  /    A nd           | Version:  11
     \\/     M anipulation  |
\*---------------------------------------------------------------------------*/
FoamFile
{
    format      ascii;
    class       volScalarField;
    location    "800";
    object      T;
}
// * * * * * * * * * * * * * * * * * * * * * * * * * * * * * * * * * * * * * //

dimensions      [0 0 0 1 0 0 0];

internalField   nonuniform List<scalar> 
78750
(
288.611
289.321
289.588
289.695
289.787
289.88
289.969
290.05
290.117
290.178
290.234
290.286
290.334
290.378
290.42
290.458
290.494
290.526
290.556
290.584
290.608
290.63
290.649
290.665
290.678
290.688
290.695
290.696
290.698
290.699
290.7
290.714
290.858
292.23
300.515
288.389
288.804
289.075
289.314
289.542
289.743
289.909
290.049
290.176
290.292
290.399
290.497
290.588
290.671
290.748
290.818
290.882
290.94
290.993
291.038
291.078
291.112
291.14
291.161
291.176
291.183
291.182
291.172
291.146
291.104
291.047
291.05
291.242
293.168
301.367
288.348
288.75
289.137
289.491
289.796
290.031
290.212
290.358
290.482
290.59
290.686
290.773
290.852
290.925
290.991
291.052
291.107
291.157
291.202
291.243
291.279
291.308
291.332
291.349
291.36
291.363
291.361
291.346
291.325
291.297
291.289
291.37
292.018
294.697
302.508
288.408
288.936
289.422
289.791
290.036
290.205
290.337
290.451
290.555
290.651
290.741
290.827
290.909
290.987
291.06
291.129
291.193
291.252
291.305
291.352
291.393
291.427
291.455
291.475
291.487
291.49
291.487
291.475
291.461
291.459
291.502
291.814
292.887
296.077
303.331
288.435
289.007
289.495
289.843
290.082
290.259
290.404
290.533
290.65
290.759
290.86
290.953
291.041
291.122
291.198
291.268
291.331
291.389
291.441
291.486
291.524
291.555
291.578
291.594
291.602
291.604
291.6
291.594
291.593
291.612
291.743
292.22
293.582
297.047
303.822
288.465
289.091
289.609
289.955
290.177
290.34
290.476
290.597
290.708
290.812
290.909
291.002
291.089
291.172
291.249
291.321
291.388
291.448
291.501
291.548
291.587
291.619
291.643
291.661
291.672
291.679
291.683
291.689
291.713
291.788
292.029
292.71
294.333
297.9
304.208
288.482
289.13
289.65
289.99
290.212
290.378
290.519
290.647
290.765
290.876
290.98
291.078
291.171
291.258
291.34
291.415
291.483
291.545
291.598
291.644
291.682
291.712
291.735
291.752
291.764
291.772
291.781
291.797
291.837
291.944
292.248
293.045
294.807
298.405
304.423
288.498
289.175
289.709
290.049
290.268
290.432
290.573
290.701
290.82
290.931
291.037
291.137
291.231
291.32
291.403
291.48
291.549
291.611
291.666
291.712
291.75
291.781
291.805
291.823
291.838
291.852
291.873
291.91
291.983
292.149
292.552
293.486
295.362
298.932
304.639
288.51
289.202
289.739
290.077
290.296
290.463
290.607
290.739
290.862
290.979
291.089
291.194
291.293
291.387
291.474
291.554
291.627
291.691
291.747
291.794
291.832
291.862
291.885
291.904
291.92
291.938
291.965
292.013
292.109
292.324
292.826
293.911
295.901
299.415
304.828
288.522
289.234
289.781
290.12
290.339
290.507
290.653
290.787
290.912
291.031
291.143
291.25
291.352
291.447
291.536
291.619
291.693
291.759
291.817
291.865
291.905
291.937
291.961
291.981
292
292.023
292.056
292.11
292.216
292.453
292.997
294.15
296.198
299.688
304.932
288.532
289.256
289.805
290.142
290.361
290.53
290.679
290.816
290.944
291.067
291.183
291.294
291.4
291.499
291.592
291.678
291.757
291.827
291.888
291.94
291.982
292.015
292.042
292.064
292.086
292.113
292.153
292.218
292.335
292.58
293.121
294.267
296.318
299.799
304.977
288.541
289.281
289.836
290.175
290.395
290.565
290.716
290.855
290.986
291.11
291.229
291.342
291.449
291.551
291.646
291.735
291.816
291.888
291.952
292.007
292.053
292.09
292.12
292.146
292.174
292.21
292.266
292.358
292.526
292.861
293.531
294.801
296.875
300.234
305.151
288.55
289.299
289.854
290.19
290.41
290.582
290.734
290.876
291.009
291.136
291.257
291.373
291.484
291.589
291.688
291.78
291.866
291.943
292.013
292.073
292.123
292.165
292.2
292.23
292.261
292.302
292.364
292.466
292.662
293.061
293.846
295.242
297.345
300.582
305.272
288.557
289.317
289.877
290.215
290.435
290.608
290.762
290.905
291.04
291.168
291.291
291.409
291.521
291.627
291.728
291.823
291.911
291.992
292.065
292.129
292.185
292.233
292.274
292.311
292.35
292.397
292.46
292.563
292.752
293.13
293.892
295.295
297.403
300.623
305.287
288.565
289.332
289.892
290.227
290.447
290.622
290.777
290.922
291.059
291.189
291.313
291.432
291.547
291.656
291.76
291.859
291.951
292.037
292.115
292.185
292.247
292.302
292.35
292.395
292.444
292.503
292.585
292.713
292.934
293.343
294.124
295.531
297.635
300.812
305.367
288.57
289.347
289.91
290.246
290.467
290.643
290.8
290.946
291.083
291.215
291.34
291.461
291.577
291.688
291.794
291.896
291.992
292.081
292.164
292.24
292.308
292.369
292.423
292.476
292.532
292.603
292.704
292.868
293.157
293.671
294.575
296.057
298.102
301.11
305.475
288.577
289.358
289.918
290.252
290.473
290.65
290.808
290.955
291.093
291.225
291.352
291.473
291.59
291.703
291.812
291.918
292.018
292.114
292.203
292.286
292.363
292.432
292.496
292.557
292.618
292.69
292.789
292.951
293.246
293.789
294.743
296.266
298.292
301.221
305.505
288.579
289.362
289.92
290.254
290.476
290.653
290.811
290.958
291.096
291.228
291.354
291.475
291.593
291.706
291.816
291.922
292.026
292.128
292.227
292.32
292.406
292.487
292.563
292.638
292.714
292.798
292.901
293.053
293.315
293.81
294.755
296.282
298.31
301.234
305.51
288.58
289.362
289.918
290.253
290.475
290.652
290.811
290.957
291.096
291.228
291.354
291.475
291.592
291.706
291.815
291.922
292.026
292.129
292.229
292.328
292.426
292.52
292.61
292.7
292.799
292.914
293.058
293.258
293.569
294.087
294.988
296.497
298.509
301.387
305.581
288.58
289.356
289.909
290.243
290.465
290.644
290.802
290.949
291.088
291.219
291.345
291.467
291.584
291.698
291.809
291.917
292.023
292.127
292.229
292.329
292.428
292.528
292.63
292.735
292.851
292.991
293.175
293.444
293.858
294.505
295.517
297.03
298.925
301.618
305.653
288.576
289.344
289.893
290.229
290.453
290.631
290.789
290.935
291.072
291.203
291.328
291.449
291.566
291.68
291.791
291.899
292.006
292.111
292.215
292.319
292.422
292.526
292.63
292.74
292.86
293.002
293.186
293.456
293.886
294.569
295.624
297.143
299.001
301.638
305.64
288.571
289.332
289.88
290.22
290.446
290.625
290.784
290.93
291.068
291.199
291.325
291.446
291.563
291.677
291.788
291.896
292.002
292.106
292.209
292.311
292.414
292.519
292.627
292.74
292.867
293.018
293.205
293.457
293.864
294.534
295.594
297.134
299.003
301.642
305.639
288.567
289.321
289.872
290.216
290.445
290.625
290.784
290.93
291.069
291.201
291.328
291.45
291.57
291.686
291.799
291.91
292.017
292.121
292.223
292.323
292.421
292.521
292.625
292.738
292.871
293.04
293.259
293.547
293.953
294.6
295.648
297.209
299.1
301.731
305.682
288.567
289.321
289.874
290.223
290.456
290.638
290.799
290.948
291.089
291.225
291.356
291.483
291.607
291.728
291.848
291.964
292.077
292.185
292.287
292.384
292.476
292.566
292.659
292.761
292.884
293.053
293.292
293.631
294.129
294.877
295.993
297.555
299.374
301.893
305.737
288.573
289.337
289.899
290.254
290.492
290.678
290.843
290.995
291.139
291.279
291.414
291.546
291.677
291.805
291.933
292.057
292.177
292.288
292.39
292.484
292.57
292.653
292.735
292.823
292.93
293.076
293.291
293.619
294.13
294.908
296.049
297.607
299.398
301.891
305.721
288.584
289.365
289.936
290.296
290.537
290.727
290.895
291.052
291.201
291.345
291.486
291.624
291.761
291.898
292.033
292.164
292.289
292.405
292.509
292.601
292.683
292.759
292.834
292.916
293.012
293.14
293.322
293.61
294.087
294.862
296.014
297.59
299.399
301.894
305.721
288.598
289.4
289.98
290.344
290.588
290.782
290.955
291.117
291.272
291.422
291.57
291.716
291.862
292.007
292.151
292.291
292.425
292.547
292.654
292.745
292.824
292.896
292.967
293.048
293.146
293.28
293.464
293.73
294.163
294.893
296.038
297.636
299.468
301.969
305.77
288.613
289.437
290.027
290.393
290.639
290.837
291.015
291.183
291.344
291.502
291.658
291.814
291.969
292.124
292.278
292.429
292.571
292.699
292.808
292.899
292.976
293.045
293.114
293.193
293.293
293.434
293.647
293.981
294.504
295.307
296.485
298.064
299.83
302.234
305.88
288.628
289.472
290.068
290.435
290.682
290.883
291.065
291.238
291.405
291.569
291.732
291.893
292.054
292.217
292.38
292.541
292.692
292.827
292.944
293.04
293.121
293.194
293.266
293.344
293.436
293.561
293.756
294.09
294.66
295.518
296.725
298.278
299.991
302.331
305.892
288.639
289.496
290.094
290.46
290.708
290.911
291.097
291.274
291.445
291.612
291.777
291.941
292.106
292.274
292.442
292.609
292.769
292.915
293.043
293.151
293.242
293.325
293.405
293.487
293.578
293.689
293.849
294.127
294.647
295.485
296.698
298.264
299.982
302.319
305.879
288.648
289.513
290.113
290.477
290.725
290.93
291.118
291.297
291.471
291.64
291.807
291.973
292.14
292.308
292.478
292.648
292.815
292.973
293.114
293.236
293.34
293.436
293.53
293.627
293.733
293.855
294.009
294.243
294.664
295.478
296.691
298.267
299.988
302.323
305.884
288.651
289.52
290.12
290.485
290.734
290.941
291.132
291.313
291.488
291.659
291.828
291.995
292.163
292.332
292.503
292.677
292.85
293.017
293.171
293.306
293.424
293.532
293.638
293.752
293.879
294.033
294.234
294.521
294.962
295.679
296.854
298.434
300.155
302.457
305.957
288.654
289.525
290.124
290.489
290.739
290.947
291.139
291.321
291.497
291.669
291.839
292.007
292.176
292.347
292.521
292.699
292.878
293.054
293.218
293.365
293.495
293.614
293.73
293.852
293.989
294.162
294.403
294.762
295.304
296.111
297.281
298.78
300.421
302.653
306.015
288.658
289.531
290.127
290.491
290.741
290.949
291.14
291.322
291.499
291.671
291.84
292.009
292.177
292.348
292.523
292.702
292.886
293.073
293.256
293.422
293.566
293.694
293.815
293.938
294.075
294.244
294.483
294.849
295.419
296.269
297.454
298.918
300.508
302.685
306.01
288.659
289.531
290.126
290.489
290.739
290.947
291.138
291.32
291.497
291.669
291.839
292.008
292.176
292.347
292.521
292.7
292.884
293.073
293.262
293.444
293.614
293.763
293.898
294.03
294.17
294.336
294.559
294.893
295.43
296.277
297.466
298.934
300.517
302.686
306.007
288.657
289.52
290.109
290.471
290.721
290.928
291.117
291.298
291.473
291.644
291.813
291.98
292.147
292.314
292.485
292.66
292.842
293.033
293.231
293.43
293.62
293.798
293.963
294.118
294.279
294.466
294.707
295.041
295.545
296.337
297.513
298.989
300.57
302.717
306.023
288.649
289.501
290.087
290.449
290.699
290.904
291.092
291.271
291.443
291.611
291.776
291.94
292.102
292.264
292.426
292.592
292.763
292.945
293.142
293.349
293.564
293.774
293.973
294.161
294.353
294.576
294.861
295.251
295.806
296.619
297.769
299.181
300.714
302.829
306.061
288.644
289.489
290.077
290.445
290.696
290.903
291.091
291.269
291.441
291.609
291.774
291.937
292.1
292.261
292.422
292.582
292.743
292.905
293.075
293.263
293.471
293.693
293.92
294.141
294.36
294.606
294.918
295.341
295.941
296.79
297.934
299.294
300.778
302.848
306.057
288.638
289.48
290.072
290.443
290.696
290.903
291.091
291.269
291.441
291.609
291.774
291.938
292.101
292.264
292.425
292.586
292.744
292.904
293.068
293.24
293.425
293.631
293.859
294.097
294.338
294.598
294.915
295.342
295.943
296.796
297.942
299.299
300.769
302.818
306.033
288.637
289.479
290.072
290.445
290.7
290.907
291.095
291.274
291.448
291.619
291.789
291.957
292.126
292.294
292.461
292.624
292.782
292.937
293.091
293.25
293.421
293.613
293.831
294.07
294.327
294.607
294.934
295.35
295.946
296.799
297.947
299.306
300.773
302.818
306.036
288.637
289.485
290.085
290.463
290.721
290.931
291.121
291.303
291.481
291.655
291.829
292.003
292.178
292.354
292.527
292.697
292.859
293.014
293.161
293.306
293.46
293.633
293.837
294.075
294.346
294.661
295.035
295.495
296.096
296.941
298.085
299.428
300.872
302.899
306.076
288.643
289.504
290.111
290.492
290.753
290.965
291.159
291.343
291.523
291.701
291.878
292.057
292.238
292.422
292.605
292.786
292.958
293.118
293.266
293.404
293.543
293.694
293.872
294.09
294.358
294.692
295.108
295.633
296.311
297.202
298.334
299.603
300.989
302.982
306.099
288.65
289.522
290.135
290.516
290.779
290.993
291.189
291.375
291.558
291.739
291.921
292.105
292.293
292.485
292.679
292.871
293.055
293.225
293.38
293.521
293.656
293.794
293.948
294.134
294.37
294.683
295.097
295.633
296.331
297.234
298.355
299.597
300.964
302.948
306.078
288.656
289.539
290.157
290.54
290.803
291.019
291.216
291.405
291.591
291.776
291.962
292.151
292.345
292.544
292.747
292.95
293.145
293.327
293.491
293.638
293.775
293.91
294.052
294.211
294.409
294.684
295.068
295.586
296.278
297.188
298.32
299.584
300.946
302.903
306.054
288.665
289.56
290.183
290.566
290.83
291.047
291.246
291.437
291.624
291.81
291.998
292.189
292.387
292.592
292.803
293.015
293.221
293.415
293.591
293.749
293.896
294.038
294.182
294.336
294.514
294.745
295.081
295.584
296.273
297.185
298.323
299.589
300.952
302.908
306.059
288.672
289.575
290.199
290.582
290.846
291.064
291.263
291.454
291.641
291.828
292.017
292.21
292.41
292.617
292.831
293.05
293.268
293.476
293.667
293.842
294.003
294.16
294.32
294.492
294.694
294.948
295.279
295.726
296.376
297.284
298.441
299.693
301.049
303.02
306.116
288.676
289.583
290.21
290.594
290.858
291.076
291.275
291.467
291.655
291.842
292.031
292.222
292.42
292.625
292.84
293.06
293.283
293.5
293.705
293.895
294.071
294.242
294.416
294.607
294.839
295.135
295.521
296.029
296.709
297.609
298.715
299.89
301.203
303.163
306.16
288.679
289.593
290.225
290.611
290.876
291.095
291.295
291.487
291.675
291.861
292.048
292.238
292.435
292.64
292.853
293.074
293.298
293.519
293.732
293.933
294.121
294.301
294.482
294.677
294.913
295.221
295.635
296.183
296.897
297.801
298.87
299.99
301.257
303.181
306.154
288.681
289.6
290.236
290.625
290.892
291.111
291.312
291.504
291.692
291.878
292.065
292.257
292.454
292.66
292.875
293.097
293.321
293.544
293.761
293.968
294.165
294.355
294.541
294.736
294.963
295.256
295.656
296.204
296.928
297.842
298.909
300.017
301.264
303.169
306.138
288.684
289.61
290.251
290.642
290.91
291.131
291.333
291.525
291.714
291.902
292.091
292.283
292.483
292.691
292.908
293.132
293.359
293.583
293.802
294.013
294.216
294.414
294.61
294.812
295.04
295.321
295.692
296.212
296.933
297.85
298.918
300.024
301.268
303.17
306.139
288.69
289.625
290.271
290.666
290.936
291.158
291.36
291.554
291.743
291.931
292.12
292.313
292.513
292.723
292.943
293.172
293.404
293.633
293.855
294.07
294.278
294.481
294.686
294.906
295.157
295.459
295.841
296.348
297.037
297.951
299.024
300.105
301.328
303.225
306.164
288.692
289.631
290.282
290.679
290.95
291.173
291.376
291.569
291.757
291.944
292.132
292.324
292.524
292.733
292.954
293.186
293.424
293.66
293.89
294.11
294.322
294.529
294.741
294.974
295.247
295.581
296.006
296.553
297.265
298.163
299.186
300.216
301.405
303.272
306.173
288.694
289.639
290.294
290.694
290.966
291.189
291.392
291.585
291.773
291.959
292.147
292.338
292.536
292.744
292.964
293.197
293.438
293.68
293.917
294.144
294.36
294.568
294.777
295.007
295.278
295.618
296.058
296.634
297.361
298.246
299.232
300.236
301.399
303.249
306.156
288.696
289.648
290.308
290.712
290.987
291.211
291.414
291.608
291.796
291.981
292.168
292.357
292.553
292.759
292.977
293.208
293.449
293.696
293.941
294.178
294.404
294.619
294.83
295.052
295.31
295.631
296.059
296.626
297.353
298.242
299.233
300.236
301.394
303.222
306.139
288.698
289.654
290.32
290.726
291.003
291.228
291.432
291.626
291.814
291.999
292.184
292.372
292.567
292.771
292.986
293.215
293.455
293.703
293.954
294.203
294.445
294.677
294.903
295.133
295.385
295.686
296.079
296.627
297.354
298.245
299.249
300.251
301.397
303.224
306.142
288.7
289.664
290.337
290.747
291.026
291.252
291.457
291.651
291.839
292.025
292.211
292.4
292.596
292.8
293.015
293.241
293.477
293.722
293.971
294.223
294.476
294.727
294.977
295.233
295.505
295.811
296.19
296.695
297.394
298.297
299.306
300.291
301.427
303.258
306.155
288.705
289.68
290.361
290.776
291.058
291.287
291.494
291.689
291.879
292.066
292.254
292.445
292.643
292.849
293.067
293.294
293.529
293.768
294.009
294.254
294.506
294.765
295.036
295.325
295.64
295.991
296.406
296.934
297.631
298.507
299.467
300.407
301.522
303.347
306.191
288.71
289.696
290.384
290.803
291.088
291.319
291.528
291.725
291.916
292.105
292.295
292.489
292.69
292.902
293.126
293.361
293.601
293.841
294.076
294.31
294.547
294.798
295.073
295.383
295.734
296.137
296.61
297.185
297.896
298.736
299.632
300.525
301.606
303.396
306.2
288.717
289.715
290.41
290.831
291.117
291.35
291.561
291.759
291.952
292.143
292.334
292.53
292.734
292.949
293.179
293.422
293.672
293.92
294.156
294.381
294.602
294.834
295.095
295.399
295.758
296.184
296.69
297.293
298.008
298.825
299.684
300.547
301.604
303.378
306.186
288.724
289.734
290.435
290.859
291.147
291.382
291.594
291.794
291.988
292.179
292.372
292.568
292.772
292.987
293.218
293.465
293.726
293.987
294.236
294.465
294.68
294.895
295.132
295.414
295.759
296.179
296.687
297.297
298.017
298.833
299.688
300.547
301.596
303.35
306.167
288.729
289.747
290.453
290.879
291.169
291.406
291.619
291.82
292.015
292.207
292.4
292.596
292.798
293.01
293.236
293.482
293.747
294.026
294.3
294.551
294.78
294.998
295.223
295.478
295.785
296.184
296.688
297.301
298.023
298.84
299.694
300.551
301.597
303.352
306.169
288.733
289.76
290.471
290.901
291.194
291.432
291.647
291.849
292.045
292.238
292.431
292.626
292.825
293.032
293.25
293.487
293.749
294.031
294.324
294.61
294.874
295.121
295.366
295.627
295.927
296.291
296.761
297.365
298.105
298.933
299.773
300.601
301.629
303.384
306.187
288.736
289.77
290.489
290.924
291.22
291.46
291.678
291.882
292.081
292.276
292.47
292.664
292.86
293.059
293.266
293.488
293.732
294.009
294.312
294.621
294.92
295.203
295.48
295.769
296.092
296.477
296.957
297.559
298.283
299.083
299.891
300.696
301.711
303.45
306.21
288.739
289.78
290.51
290.952
291.252
291.496
291.717
291.925
292.128
292.327
292.524
292.719
292.912
293.104
293.298
293.502
293.728
293.979
294.27
294.591
294.92
295.24
295.552
295.87
296.217
296.619
297.106
297.701
298.406
299.178
299.959
300.747
301.75
303.475
306.212
288.742
289.795
290.538
290.988
291.294
291.543
291.768
291.982
292.191
292.397
292.6
292.8
292.995
293.182
293.364
293.55
293.75
293.978
294.243
294.55
294.892
295.241
295.59
295.946
296.326
296.753
297.253
297.848
298.535
299.28
300.035
300.804
301.789
303.49
306.21
288.747
289.817
290.575
291.032
291.343
291.597
291.828
292.049
292.266
292.482
292.696
292.905
293.105
293.291
293.466
293.637
293.814
294.012
294.245
294.524
294.848
295.205
295.58
295.965
296.379
296.841
297.365
297.966
298.642
299.361
300.09
300.839
301.807
303.489
306.205
288.758
289.855
290.631
291.095
291.41
291.669
291.908
292.136
292.363
292.591
292.817
293.037
293.243
293.431
293.601
293.762
293.923
294.096
294.294
294.531
294.816
295.148
295.519
295.924
296.357
296.836
297.38
297.988
298.661
299.371
300.084
300.826
301.787
303.457
306.186
288.778
289.909
290.697
291.164
291.484
291.749
291.993
292.23
292.468
292.709
292.949
293.181
293.394
293.585
293.755
293.912
294.065
294.225
294.402
294.607
294.853
295.151
295.505
295.904
296.342
296.831
297.378
297.991
298.663
299.37
300.084
300.821
301.773
303.438
306.177
288.792
289.941
290.733
291.201
291.522
291.789
292.039
292.283
292.528
292.776
293.025
293.269
293.497
293.699
293.879
294.044
294.201
294.359
294.527
294.714
294.93
295.192
295.515
295.904
296.342
296.831
297.378
297.993
298.665
299.371
300.084
300.821
301.775
303.438
306.178
288.803
289.966
290.76
291.225
291.545
291.814
292.063
292.303
292.541
292.784
293.031
293.279
293.52
293.748
293.953
294.136
294.309
294.479
294.653
294.837
295.043
295.285
295.578
295.931
296.351
296.837
297.391
298.014
298.691
299.393
300.097
300.826
301.778
303.448
306.186
288.806
289.97
290.763
291.227
291.547
291.816
292.064
292.303
292.54
292.779
293.023
293.271
293.516
293.75
293.969
294.176
294.372
294.563
294.755
294.953
295.166
295.405
295.685
296.018
296.418
296.888
297.436
298.057
298.733
299.431
300.125
300.846
301.797
303.47
306.197
288.801
289.961
290.755
291.22
291.54
291.807
292.051
292.285
292.514
292.745
292.983
293.228
293.479
293.725
293.959
294.177
294.386
294.597
294.814
295.04
295.279
295.538
295.825
296.156
296.547
297.009
297.549
298.164
298.831
299.514
300.193
300.905
301.851
303.519
306.215
288.795
289.951
290.748
291.216
291.537
291.805
292.05
292.284
292.514
292.744
292.978
293.218
293.462
293.705
293.94
294.165
294.383
294.602
294.832
295.082
295.355
295.648
295.96
296.306
296.702
297.164
297.701
298.306
298.956
299.618
300.278
300.977
301.916
303.574
306.232
288.795
289.954
290.756
291.227
291.55
291.819
292.065
292.299
292.527
292.755
292.987
293.224
293.465
293.706
293.94
294.164
294.38
294.597
294.829
295.088
295.382
295.708
296.056
296.428
296.839
297.307
297.84
298.435
299.068
299.711
300.357
301.044
301.973
303.611
306.238
288.796
289.962
290.773
291.251
291.577
291.848
292.096
292.33
292.559
292.787
293.017
293.251
293.488
293.723
293.952
294.172
294.384
294.596
294.82
295.073
295.37
295.71
296.086
296.491
296.925
297.403
297.936
298.52
299.136
299.764
300.397
301.077
301.997
303.618
306.235
288.796
289.965
290.783
291.265
291.595
291.869
292.118
292.356
292.587
292.819
293.053
293.292
293.532
293.767
293.991
294.204
294.407
294.607
294.816
295.052
295.335
295.673
296.062
296.484
296.939
297.431
297.961
298.537
299.145
299.767
300.399
301.078
301.994
303.603
306.221
288.799
289.978
290.8
291.283
291.614
291.888
292.139
292.377
292.611
292.844
293.082
293.325
293.571
293.812
294.041
294.253
294.451
294.641
294.836
295.053
295.313
295.632
296.016
296.452
296.925
297.43
297.976
298.557
299.166
299.785
300.412
301.086
301.994
303.594
306.216
288.804
289.996
290.827
291.314
291.646
291.921
292.172
292.411
292.644
292.875
293.111
293.353
293.601
293.848
294.083
294.301
294.501
294.688
294.873
295.074
295.312
295.606
295.972
296.408
296.896
297.422
297.979
298.568
299.176
299.792
300.417
301.089
301.994
303.591
306.214
288.804
289.998
290.835
291.327
291.663
291.94
292.192
292.431
292.663
292.893
293.126
293.366
293.612
293.862
294.106
294.334
294.542
294.732
294.915
295.106
295.326
295.599
295.937
296.35
296.833
297.368
297.941
298.539
299.151
299.769
300.397
301.072
301.976
303.566
306.2
288.803
290
290.843
291.338
291.675
291.953
292.207
292.448
292.682
292.913
293.147
293.386
293.632
293.881
294.127
294.362
294.581
294.78
294.967
295.155
295.364
295.613
295.932
296.328
296.799
297.332
297.911
298.518
299.138
299.761
300.392
301.068
301.973
303.563
306.199
288.81
290.025
290.877
291.375
291.713
291.994
292.249
292.492
292.728
292.962
293.198
293.441
293.689
293.937
294.18
294.413
294.634
294.839
295.035
295.231
295.441
295.681
295.969
296.336
296.799
297.332
297.912
298.52
299.141
299.764
300.394
301.069
301.975
303.567
306.204
288.819
290.051
290.911
291.41
291.75
292.032
292.29
292.535
292.772
293.009
293.249
293.497
293.753
294.007
294.251
294.481
294.699
294.906
295.108
295.316
295.542
295.8
296.103
296.463
296.886
297.389
297.959
298.567
299.189
299.808
300.43
301.101
302.009
303.61
306.225
288.827
290.073
290.941
291.442
291.783
292.066
292.325
292.57
292.809
293.045
293.287
293.538
293.798
294.058
294.304
294.531
294.742
294.944
295.146
295.36
295.598
295.876
296.208
296.599
297.048
297.555
298.109
298.693
299.29
299.888
300.495
301.157
302.057
303.646
306.237
288.833
290.097
290.975
291.48
291.822
292.108
292.369
292.615
292.853
293.09
293.331
293.584
293.849
294.114
294.361
294.582
294.78
294.967
295.154
295.355
295.585
295.861
296.2
296.605
297.071
297.586
298.139
298.715
299.301
299.891
300.495
301.155
302.054
303.64
306.23
288.838
290.12
291.006
291.513
291.858
292.146
292.409
292.656
292.896
293.133
293.377
293.634
293.908
294.186
294.443
294.661
294.845
295.01
295.173
295.351
295.552
295.788
296.08
296.454
296.914
297.439
298
298.575
299.154
299.741
300.35
301.017
301.911
303.489
306.155
288.85
290.16
291.053
291.558
291.904
292.194
292.458
292.706
292.946
293.183
293.427
293.689
293.975
294.276
294.559
294.794
294.978
295.13
295.267
295.405
295.567
295.775
296.029
296.35
296.752
297.245
297.808
298.413
299.036
299.667
300.298
300.966
301.857
303.447
306.139
288.862
290.199
291.097
291.6
291.947
292.24
292.504
292.752
292.991
293.228
293.471
293.734
294.034
294.364
294.689
294.963
295.173
295.336
295.468
295.588
295.711
295.853
296.054
296.351
296.747
297.234
297.8
298.412
299.041
299.672
300.3
300.967
301.862
303.457
306.152
288.88
290.242
291.141
291.643
291.991
292.285
292.552
292.801
293.04
293.276
293.515
293.773
294.067
294.413
294.794
295.139
295.403
295.605
295.76
295.89
296.015
296.152
296.324
296.554
296.891
297.352
297.917
298.536
299.159
299.763
300.368
301.036
301.955
303.59
306.233
288.896
290.277
291.177
291.677
292.025
292.32
292.587
292.836
293.073
293.304
293.537
293.786
294.07
294.416
294.823
295.231
295.578
295.851
296.061
296.231
296.39
296.562
296.771
297.044
297.406
297.862
298.391
298.95
299.509
300.06
300.627
301.269
302.175
303.78
306.309
288.901
290.291
291.2
291.705
292.057
292.354
292.622
292.871
293.106
293.332
293.554
293.783
294.036
294.344
294.729
295.166
295.586
295.946
296.24
296.479
296.695
296.914
297.165
297.469
297.843
298.286
298.775
299.282
299.79
300.304
300.844
301.47
302.359
303.915
306.347
288.904
290.299
291.216
291.726
292.081
292.382
292.652
292.902
293.136
293.357
293.57
293.783
294.006
294.272
294.607
295.019
295.473
295.909
296.275
296.585
296.864
297.139
297.432
297.761
298.138
298.56
299.014
299.484
299.963
300.455
300.98
301.592
302.464
303.977
306.355
288.905
290.304
291.231
291.749
292.109
292.413
292.686
292.938
293.172
293.39
293.596
293.796
294
294.22
294.498
294.856
295.299
295.785
296.23
296.592
296.919
297.237
297.564
297.916
298.299
298.711
299.144
299.59
300.049
300.526
301.039
301.639
302.495
303.983
306.348
288.901
290.296
291.24
291.77
292.136
292.445
292.723
292.977
293.211
293.427
293.628
293.819
294.005
294.197
294.406
294.674
295.043
295.514
296.026
296.505
296.903
297.239
297.58
297.939
298.323
298.731
299.158
299.599
300.054
300.529
301.041
301.639
302.494
303.979
306.34
288.894
290.292
291.251
291.792
292.167
292.481
292.764
293.021
293.256
293.471
293.668
293.853
294.028
294.2
294.378
294.576
294.821
295.161
295.606
296.115
296.625
297.098
297.516
297.91
298.305
298.712
299.134
299.57
300.021
300.497
301.01
301.607
302.451
303.918
306.298
288.89
290.292
291.27
291.826
292.21
292.532
292.821
293.083
293.32
293.534
293.729
293.909
294.079
294.243
294.403
294.567
294.752
294.978
295.283
295.692
296.181
296.694
297.187
297.652
298.1
298.541
298.984
299.434
299.901
300.389
300.911
301.51
302.348
303.815
306.251
288.892
290.31
291.305
291.872
292.266
292.597
292.894
293.162
293.402
293.616
293.809
293.986
294.153
294.313
294.468
294.624
294.789
294.976
295.211
295.525
295.936
296.42
296.929
297.433
297.922
298.401
298.876
299.354
299.84
300.342
300.875
301.477
302.315
303.785
306.245
288.899
290.334
291.344
291.923
292.326
292.668
292.975
293.249
293.493
293.707
293.899
294.073
294.236
294.393
294.546
294.698
294.856
295.031
295.243
295.521
295.887
296.34
296.846
297.362
297.87
298.366
298.857
299.346
299.841
300.349
300.883
301.486
302.322
303.793
306.252
288.906
290.357
291.382
291.971
292.385
292.738
293.055
293.336
293.583
293.798
293.988
294.16
294.321
294.475
294.623
294.771
294.922
295.089
295.289
295.546
295.886
296.311
296.807
297.331
297.85
298.357
298.854
299.349
299.849
300.362
300.899
301.502
302.337
303.806
306.259
288.913
290.379
291.419
292.018
292.443
292.809
293.136
293.424
293.673
293.887
294.076
294.246
294.404
294.556
294.703
294.847
294.995
295.154
295.342
295.58
295.89
296.288
296.757
297.272
297.799
298.319
298.831
299.339
299.851
300.37
300.913
301.52
302.357
303.822
306.263
288.92
290.402
291.456
292.067
292.504
292.884
293.221
293.516
293.767
293.981
294.167
294.335
294.491
294.641
294.786
294.929
295.073
295.227
295.407
295.63
295.918
296.289
296.739
297.239
297.765
298.294
298.819
299.337
299.853
300.379
300.926
301.536
302.376
303.841
306.27
288.927
290.426
291.494
292.117
292.567
292.96
293.309
293.609
293.863
294.077
294.262
294.428
294.581
294.729
294.872
295.012
295.155
295.308
295.483
295.695
295.963
296.307
296.74
297.238
297.763
298.293
298.819
299.339
299.858
300.385
300.932
301.54
302.382
303.85
306.273
288.936
290.455
291.536
292.171
292.635
293.043
293.403
293.709
293.965
294.18
294.364
294.528
294.679
294.823
294.964
295.103
295.246
295.4
295.576
295.787
296.049
296.374
296.772
297.244
297.766
298.299
298.837
299.373
299.904
300.431
300.975
301.582
302.419
303.879
306.284
288.946
290.484
291.577
292.225
292.704
293.128
293.499
293.811
294.069
294.284
294.469
294.631
294.779
294.918
295.053
295.189
295.33
295.484
295.664
295.883
296.154
296.488
296.887
297.346
297.851
298.387
298.923
299.45
299.97
300.491
301.029
301.632
302.466
303.918
306.299
288.954
290.513
291.619
292.278
292.772
293.211
293.592
293.909
294.17
294.388
294.575
294.737
294.883
295.017
295.145
295.272
295.403
295.549
295.722
295.936
296.207
296.544
296.951
297.418
297.921
298.44
298.965
299.486
300.002
300.52
301.056
301.655
302.483
303.926
306.298
288.964
290.552
291.668
292.34
292.849
293.301
293.69
294.012
294.278
294.502
294.695
294.864
295.014
295.147
295.269
295.387
295.505
295.635
295.788
295.981
296.23
296.553
296.953
297.419
297.924
298.449
298.98
299.506
300.023
300.537
301.067
301.662
302.487
303.925
306.294
288.983
290.611
291.732
292.412
292.934
293.398
293.794
294.119
294.389
294.621
294.826
295.01
295.172
295.312
295.438
295.555
295.667
295.784
295.916
296.079
296.292
296.578
296.959
297.42
297.928
298.456
298.995
299.523
300.035
300.542
301.07
301.665
302.49
303.929
306.298
289.007
290.677
291.8
292.486
293.021
293.495
293.895
294.222
294.495
294.734
294.954