/*--------------------------------*- C++ -*----------------------------------*\
  =========                 |
  \\      /  F ield         | OpenFOAM: The Open Source CFD Toolbox
   \\    /   O peration     | Website:  https://openfoam.org
    \\  /    A nd           | Version:  11
     \\/     M anipulation  |
\*---------------------------------------------------------------------------*/
FoamFile
{
    format      ascii;
    class       volVectorField;
    location    "800";
    object      U;
}
// * * * * * * * * * * * * * * * * * * * * * * * * * * * * * * * * * * * * * //

dimensions      [0 1 -1 0 0 0 0];

internalField   nonuniform List<vector> 
78750
(
(-0.00183835 0.0123395 0.0366579)
(-0.00946162 0.00574024 0.0640389)
(-0.0152702 -0.00580644 0.0643026)
(-0.0181568 -0.0169137 0.0613977)
(-0.0189721 -0.0311395 0.0577381)
(-0.0158672 -0.0414498 0.0546954)
(-0.0110078 -0.0486248 0.052397)
(-0.00472043 -0.0533289 0.0506805)
(0.0023076 -0.0562157 0.0494123)
(0.00970531 -0.057725 0.0485008)
(0.0173199 -0.058268 0.0478232)
(0.0248338 -0.0581407 0.0473363)
(0.0322608 -0.0572991 0.0469743)
(0.0393576 -0.055998 0.0466823)
(0.0461078 -0.0543113 0.0464364)
(0.0524263 -0.0522923 0.0462274)
(0.0582212 -0.0500059 0.0460415)
(0.0634538 -0.0474998 0.0458614)
(0.0680083 -0.0447646 0.0457366)
(0.0720188 -0.0416289 0.0456663)
(0.0750402 -0.0389189 0.0456143)
(0.0779523 -0.0335975 0.0454007)
(0.0790446 -0.0310832 0.0452555)
(0.079954 -0.0279544 0.0451391)
(0.0797055 -0.0239768 0.0452013)
(0.0783827 -0.019667 0.0454339)
(0.0760749 -0.0151368 0.0458447)
(0.0724966 -0.0103201 0.0465208)
(0.0674035 -0.00499584 0.0472715)
(0.0612576 0.000827101 0.0481891)
(0.0535347 0.00801244 0.0493322)
(0.0439489 0.0139533 0.0518365)
(0.0334611 0.0191937 0.055233)
(0.0200846 0.0260094 0.0579944)
(0.00618638 0.0315225 0.0398655)
(5.07527e-05 0.0176013 0.024127)
(0.000178668 0.0168946 0.0461263)
(0.00159909 -0.00460402 0.0478706)
(0.00379674 -0.0296582 0.0445858)
(0.00878636 -0.0561647 0.0391281)
(0.0131914 -0.0773068 0.0342429)
(0.0178225 -0.0921737 0.0305491)
(0.0221758 -0.100427 0.0282634)
(0.0264506 -0.104918 0.0267154)
(0.030301 -0.106835 0.0255885)
(0.0347564 -0.106463 0.024669)
(0.0377049 -0.105412 0.0242768)
(0.0415016 -0.102801 0.023922)
(0.044514 -0.0992399 0.0237046)
(0.0473005 -0.0949253 0.0235863)
(0.0497909 -0.0899704 0.023556)
(0.0519616 -0.0844661 0.0235992)
(0.0537148 -0.0784483 0.0237324)
(0.0554034 -0.0719359 0.0239713)
(0.0560222 -0.0659233 0.0239668)
(0.0567059 -0.0591058 0.0241632)
(0.0566329 -0.0516691 0.0245392)
(0.0566447 -0.0431119 0.0253297)
(0.0557071 -0.0341129 0.0262872)
(0.054298 -0.024714 0.0273306)
(0.0525233 -0.0156289 0.0278093)
(0.0506054 -0.0059118 0.0283979)
(0.0468235 0.00944502 0.0298903)
(0.0437599 0.0181459 0.0308276)
(0.0391212 0.0293442 0.0323347)
(0.0340784 0.0422645 0.0347667)
(0.0272925 0.0582592 0.0372274)
(0.020133 0.0746448 0.0402923)
(0.0105959 0.0928558 0.0414243)
(0.00185515 0.0857117 0.0275879)
(-0.000280057 -0.0051174 0.0154827)
(0.00216013 -0.0322754 0.0273205)
(0.00660508 -0.0721246 0.0259552)
(0.0118085 -0.105604 0.022403)
(0.0164653 -0.127751 0.0198261)
(0.0200022 -0.138396 0.0187816)
(0.0224383 -0.141922 0.0185794)
(0.0245785 -0.142952 0.0183691)
(0.0260395 -0.142336 0.0182877)
(0.027599 -0.140086 0.0182749)
(0.0288133 -0.136721 0.018312)
(0.0300141 -0.132503 0.0183348)
(0.0310294 -0.127712 0.0183559)
(0.0319702 -0.122369 0.0183755)
(0.0328162 -0.116544 0.0183971)
(0.0335684 -0.110278 0.0184243)
(0.0342037 -0.103601 0.0184559)
(0.0347696 -0.0965326 0.0184971)
(0.0349251 -0.0887533 0.018684)
(0.035525 -0.0792039 0.0194703)
(0.0353457 -0.0698161 0.0201937)
(0.034922 -0.0610185 0.0204339)
(0.0341773 -0.0520681 0.02121)
(0.0333731 -0.0425314 0.0221576)
(0.032222 -0.0326838 0.0232316)
(0.0309082 -0.0232602 0.0241967)
(0.0293287 -0.0121952 0.0256019)
(0.0271371 0.00269083 0.0277256)
(0.0254064 0.0121551 0.0289938)
(0.0227283 0.0266294 0.0309431)
(0.0197114 0.044338 0.0333254)
(0.0156734 0.0654559 0.0358892)
(0.0110145 0.0881103 0.0380977)
(0.00517652 0.109833 0.0382443)
(0.000502587 0.0940982 0.0218997)
(-3.84759e-05 -0.0148201 0.0100617)
(0.00246949 -0.0609654 0.0157126)
(0.00616039 -0.102996 0.0154582)
(0.00935269 -0.127321 0.0148273)
(0.0116702 -0.138664 0.014391)
(0.0133337 -0.144079 0.0139271)
(0.0147595 -0.146924 0.0134042)
(0.0161835 -0.148037 0.0128876)
(0.0173917 -0.14781 0.0124994)
(0.018658 -0.146478 0.0120811)
(0.0198225 -0.144161 0.0117052)
(0.020954 -0.14095 0.011378)
(0.0220315 -0.136897 0.0110995)
(0.0230255 -0.132057 0.0108684)
(0.0239158 -0.126471 0.010685)
(0.024678 -0.12017 0.0105522)
(0.0252875 -0.113179 0.0104735)
(0.0257166 -0.105526 0.0104457)
(0.0259396 -0.0973432 0.0104366)
(0.0260783 -0.0886578 0.0104368)
(0.0258029 -0.0790859 0.0105951)
(0.0260281 -0.0679369 0.0118797)
(0.0252902 -0.0570342 0.0123522)
(0.0246984 -0.0458193 0.0130644)
(0.023797 -0.0344813 0.0140653)
(0.0227176 -0.0235397 0.0152667)
(0.0214213 -0.0109162 0.0171768)
(0.0196966 0.00455588 0.0199993)
(0.0182615 0.0147864 0.021896)
(0.0161479 0.0299433 0.0247435)
(0.0139713 0.049258 0.0281788)
(0.010871 0.0737381 0.0315121)
(0.00748753 0.100454 0.0346481)
(0.00295402 0.122905 0.0338115)
(-3.07599e-05 0.0964763 0.0166609)
(6.57817e-05 -0.0274541 0.00719725)
(0.00208413 -0.0874624 0.0109123)
(0.00448124 -0.131299 0.0106469)
(0.00661221 -0.154593 0.00988256)
(0.00844336 -0.165701 0.0093318)
(0.0100684 -0.170702 0.00900023)
(0.0116835 -0.172412 0.0088098)
(0.0130724 -0.172139 0.00871762)
(0.0144982 -0.170448 0.00861112)
(0.0157371 -0.167588 0.0085094)
(0.0168794 -0.163703 0.00840417)
(0.0178969 -0.158897 0.00829161)
(0.0187865 -0.153228 0.00817505)
(0.0195474 -0.146736 0.00806211)
(0.0201741 -0.139458 0.00796186)
(0.0206593 -0.131429 0.00788524)
(0.0209983 -0.122688 0.00784722)
(0.0211828 -0.113273 0.00786697)
(0.0212046 -0.103147 0.0079772)
(0.0210407 -0.0923776 0.00816204)
(0.0207237 -0.0813048 0.00819661)
(0.0201385 -0.0702415 0.00822251)
(0.0196686 -0.0588163 0.00861898)
(0.019018 -0.0471696 0.00933814)
(0.0182472 -0.0356987 0.0103317)
(0.0174178 -0.0248139 0.0116109)
(0.0164287 -0.0127741 0.013427)
(0.01523 0.00105554 0.0158375)
(0.0142038 0.0110653 0.0176843)
(0.0126987 0.0261071 0.020621)
(0.0109801 0.0466064 0.024442)
(0.00873228 0.0743305 0.0286499)
(0.00590053 0.104866 0.0315983)
(0.00226972 0.12844 0.0302554)
(3.44976e-05 0.0959206 0.0147587)
(0.000168789 -0.0353999 0.00478381)
(0.00179399 -0.101186 0.00692304)
(0.00366638 -0.143094 0.00687349)
(0.00530428 -0.162292 0.00669683)
(0.00664518 -0.170393 0.00654465)
(0.00779703 -0.173847 0.00638554)
(0.00887944 -0.174951 0.00619177)
(0.00982933 -0.174545 0.0059806)
(0.0107847 -0.172795 0.00572784)
(0.0116595 -0.169872 0.00547309)
(0.0124966 -0.16593 0.00522179)
(0.0132845 -0.161066 0.0049784)
(0.0140065 -0.155328 0.00474008)
(0.0146474 -0.148754 0.00450385)
(0.0151968 -0.141381 0.00427036)
(0.0156444 -0.133246 0.00404014)
(0.0159829 -0.124393 0.00381419)
(0.0162051 -0.114877 0.0035941)
(0.0163243 -0.104638 0.00343948)
(0.0162948 -0.0937714 0.00357676)
(0.0163661 -0.0824237 0.00433758)
(0.0161647 -0.0708998 0.00501462)
(0.0159254 -0.0592597 0.00570206)
(0.0155854 -0.0475607 0.00647583)
(0.0151343 -0.0360523 0.00738275)
(0.0145819 -0.0249327 0.00849187)
(0.0138735 -0.0127638 0.0099336)
(0.0129477 0.000796842 0.0119214)
(0.0120721 0.0110299 0.0136596)
(0.0108074 0.0262696 0.0167517)
(0.00926136 0.0474378 0.0213232)
(0.00729963 0.0765714 0.0268507)
(0.00469229 0.110147 0.0297887)
(0.00178053 0.13383 0.0272696)
(4.58802e-05 0.0959005 0.0124543)
(9.92265e-05 -0.0432206 0.00322667)
(0.00123276 -0.115534 0.00474852)
(0.00258299 -0.158735 0.00480216)
(0.00386233 -0.178043 0.00462447)
(0.00505051 -0.186084 0.00444961)
(0.00619021 -0.189336 0.00429827)
(0.00734405 -0.19003 0.00416484)
(0.00840069 -0.189034 0.00405671)
(0.00946357 -0.186539 0.00394479)
(0.0104407 -0.18285 0.0038307)
(0.0113662 -0.178061 0.00371074)
(0.0122214 -0.172222 0.00358186)
(0.0130011 -0.165385 0.00344776)
(0.0136957 -0.157602 0.00331389)
(0.014291 -0.14893 0.00318565)
(0.0147768 -0.139438 0.00306995)
(0.0151393 -0.129206 0.00296707)
(0.0154319 -0.118319 0.00284976)
(0.0154763 -0.107062 0.00256928)
(0.0155338 -0.0956513 0.0025546)
(0.0154926 -0.0841724 0.00281038)
(0.0152847 -0.07251 0.00310468)
(0.0150086 -0.0607203 0.0034735)
(0.0146454 -0.0489234 0.00394944)
(0.0141969 -0.0373599 0.00452912)
(0.0136287 -0.0261735 0.00517163)
(0.0129268 -0.014187 0.00627071)
(0.0119945 -0.0011494 0.00785496)
(0.0111229 0.00905427 0.00928874)
(0.00987224 0.0247357 0.0117397)
(0.00845332 0.0472866 0.0157117)
(0.00655488 0.0786063 0.0212162)
(0.00423909 0.11294 0.0254728)
(0.0015923 0.136329 0.0236273)
(4.64396e-05 0.0958474 0.0100464)
(0.000124886 -0.0470332 0.00204629)
(0.00111691 -0.121477 0.0031709)
(0.00229368 -0.163556 0.00344565)
(0.00335645 -0.181252 0.00348393)
(0.00430385 -0.188369 0.00342464)
(0.0051926 -0.191152 0.00330984)
(0.00607366 -0.191596 0.00314813)
(0.00688862 -0.190472 0.00296015)
(0.0077099 -0.187911 0.00272852)
(0.00847627 -0.18417 0.00247576)
(0.00920125 -0.17931 0.00220623)
(0.009873 -0.173377 0.00192028)
(0.0104861 -0.166434 0.00161897)
(0.0110361 -0.158536 0.00130594)
(0.0115201 -0.149739 0.000989334)
(0.0119318 -0.140118 0.000683647)
(0.0122836 -0.129764 0.000417502)
(0.0124843 -0.11875 0.000253917)
(0.0127522 -0.107154 0.00037467)
(0.012829 -0.095196 0.000319238)
(0.0127725 -0.0829456 3.01908e-05)
(0.0127106 -0.0706706 -0.00013092)
(0.0125359 -0.0585008 -0.000129705)
(0.0122977 -0.0465209 5.67294e-05)
(0.0120033 -0.0348113 0.000460174)
(0.0116127 -0.0230355 0.00115314)
(0.0110963 -0.0106648 0.00227293)
(0.0103687 0.00237328 0.00391122)
(0.00961437 0.0126956 0.00554453)
(0.00854402 0.027985 0.00863015)
(0.00729668 0.0504469 0.0131798)
(0.00558081 0.0828665 0.0184643)
(0.00351573 0.118601 0.0219202)
(0.00120771 0.140726 0.0201462)
(-1.4494e-05 0.0960869 0.0084854)
(7.37505e-05 -0.0520516 0.00140857)
(0.00084887 -0.131135 0.00242663)
(0.0018231 -0.174436 0.00275326)
(0.00276066 -0.19225 0.00277691)
(0.00365029 -0.199247 0.00270606)
(0.00451967 -0.20184 0.00260542)
(0.00539693 -0.202003 0.00249037)
(0.00621285 -0.200505 0.00237425)
(0.00702182 -0.197436 0.00224514)
(0.00777159 -0.193001 0.00211019)
(0.00847427 -0.187341 0.00196151)
(0.00912229 -0.180557 0.00179297)
(0.00971286 -0.172706 0.00160044)
(0.010241 -0.163852 0.00138057)
(0.0107028 -0.154064 0.00113125)
(0.0110914 -0.143421 0.000851095)
(0.0114302 -0.132027 0.000535538)
(0.0116382 -0.12008 0.000166285)
(0.0118405 -0.107819 -0.000155744)
(0.0119073 -0.0952844 -0.000495536)
(0.0119648 -0.0827072 -0.000729056)
(0.0118751 -0.0701668 -0.000891762)
(0.0116888 -0.0578181 -0.000957571)
(0.0114128 -0.0457988 -0.000902449)
(0.0110508 -0.0340705 -0.00069801)
(0.0105799 -0.0222795 -0.000284229)
(0.0099655 -0.00989655 0.00044212)
(0.00932606 0.00301725 0.00158381)
(0.00874847 0.0136447 0.00282791)
(0.0077804 0.0294268 0.00543883)
(0.00652377 0.0528404 0.00980099)
(0.00483663 0.0865137 0.0152679)
(0.00298429 0.122401 0.0188689)
(0.00105802 0.143203 0.0172528)
(2.33224e-05 0.0960896 0.00710963)
(9.43845e-05 -0.0541921 0.000996762)
(0.000802404 -0.134524 0.0020571)
(0.00164225 -0.177216 0.00256654)
(0.00240826 -0.19432 0.00269122)
(0.00311615 -0.200969 0.00265934)
(0.00380316 -0.203361 0.00256324)
(0.00449002 -0.203355 0.00243022)
(0.00513328 -0.201664 0.00227878)
(0.00576436 -0.198421 0.00210035)
(0.0063647 -0.193877 0.0019049)
(0.00694431 -0.188138 0.00169013)
(0.0074962 -0.181277 0.00145142)
(0.00801771 -0.173342 0.00118343)
(0.00850874 -0.164397 0.000885031)
(0.00896817 -0.154515 0.000560167)
(0.00940034 -0.143773 0.000222249)
(0.0097621 -0.132272 -9.71275e-05)
(0.0101558 -0.12016 -0.000342289)
(0.0103965 -0.107554 -0.000658885)
(0.0105979 -0.0945275 -0.00102913)
(0.0106639 -0.0810744 -0.00146703)
(0.0106846 -0.0675757 -0.00185481)
(0.0106071 -0.0543757 -0.00213083)
(0.0104433 -0.0416467 -0.00226126)
(0.0101964 -0.0292815 -0.00221054)
(0.009835 -0.0166745 -0.00191481)
(0.00930946 -0.00392639 -0.00131901)
(0.00886735 0.00628722 -0.000614047)
(0.00833916 0.018102 0.000579928)
(0.00743699 0.0348518 0.00281479)
(0.00625581 0.058879 0.00668567)
(0.0047098 0.0922178 0.0119994)
(0.00300356 0.126975 0.0159428)
(0.00119939 0.146072 0.0150402)
(7.68244e-05 0.0966939 0.00630303)
(6.34332e-05 -0.0579239 0.000835812)
(0.00065172 -0.14194 0.00195288)
(0.00137233 -0.185501 0.00248732)
(0.00205165 -0.20257 0.00261987)
(0.00269605 -0.209069 0.00261184)
(0.00334528 -0.211295 0.00255665)
(0.00397363 -0.211101 0.00248681)
(0.00459614 -0.209074 0.00240637)
(0.00518324 -0.205518 0.00232133)
(0.00574665 -0.200601 0.00222965)
(0.00628015 -0.194402 0.00212384)
(0.00678339 -0.186998 0.00199492)
(0.0072553 -0.1785 0.00183447)
(0.00769741 -0.168984 0.00163086)
(0.00811109 -0.158517 0.00136984)
(0.00849544 -0.147166 0.00103679)
(0.00885383 -0.135004 0.000619417)
(0.00917483 -0.122115 0.000118664)
(0.00945902 -0.108658 -0.000424803)
(0.00971501 -0.0948714 -0.000971401)
(0.00986841 -0.0810098 -0.00147926)
(0.0100532 -0.0673192 -0.00198063)
(0.0101277 -0.0539367 -0.00241324)
(0.0101423 -0.0409905 -0.0027386)
(0.0100806 -0.02841 -0.00292001)
(0.009918 -0.0155881 -0.00290204)
(0.00962509 -0.00269463 -0.00264988)
(0.00929415 0.00750358 -0.0022882)
(0.00872748 0.0209208 -0.00145589)
(0.00786652 0.0384264 0.000250541)
(0.00666045 0.0631691 0.0034366)
(0.00495946 0.0972062 0.00820483)
(0.00306378 0.132282 0.0122809)
(0.00115954 0.150713 0.0122486)
(4.06407e-05 0.0989197 0.00492224)
(8.62654e-05 -0.0595155 0.000784248)
(0.000623612 -0.144422 0.00206722)
(0.00122276 -0.187564 0.00270909)
(0.00175896 -0.20424 0.00287752)
(0.00226015 -0.210564 0.00287962)
(0.00276148 -0.212671 0.00282503)
(0.003249 -0.212351 0.00275088)
(0.00373215 -0.210175 0.00266585)
(0.00419415 -0.206451 0.00257678)
(0.00463836 -0.20137 0.0024841)
(0.00506326 -0.195057 0.00238331)
(0.00547194 -0.187594 0.00226734)
(0.00586738 -0.17905 0.00212644)
(0.00625125 -0.169498 0.00194882)
(0.00662568 -0.159004 0.00172126)
(0.0069922 -0.147636 0.00143031)
(0.00735102 -0.13547 0.00106413)
(0.00770251 -0.1226 0.00061352)
(0.0080457 -0.109148 7.49968e-05)
(0.00833807 -0.0952544 -0.000538201)
(0.00868283 -0.081051 -0.00119315)
(0.00880964 -0.0666523 -0.00177406)
(0.00899641 -0.0525396 -0.00242794)
(0.00901822 -0.0389082 -0.00297981)
(0.00894543 -0.0255286 -0.00338534)
(0.00875122 -0.0118957 -0.00358185)
(0.00841548 0.00152115 -0.00352182)
(0.00802784 0.012435 -0.00327001)
(0.00744475 0.0268803 -0.00256609)
(0.00664075 0.0461502 -0.00106778)
(0.00547787 0.0732797 0.00161129)
(0.00379114 0.108749 0.00537981)
(0.00204195 0.142247 0.00845766)
(0.000511175 0.156895 0.00844062)
(-0.000123661 0.0995056 0.00298399)
(4.81655e-05 -0.0625879 0.000867215)
(0.000474932 -0.150459 0.00225309)
(0.000972057 -0.194131 0.00289112)
(0.00142821 -0.210667 0.00306202)
(0.00186425 -0.216835 0.00308906)
(0.00230623 -0.218801 0.00307675)
(0.00274089 -0.218318 0.00305836)
(0.0031725 -0.215944 0.00304566)
(0.00358738 -0.211991 0.00304302)
(0.00398716 -0.206644 0.00304966)
(0.00436773 -0.200023 0.0030586)
(0.00472731 -0.192228 0.00305901)
(0.0050661 -0.183352 0.00303724)
(0.00538615 -0.173471 0.00297648)
(0.00569116 -0.162647 0.0028571)
(0.00598661 -0.150929 0.00265753)
(0.00627765 -0.138384 0.00235752)
(0.00656625 -0.12507 0.00193995)
(0.00684896 -0.11107 0.00139583)
(0.0071236 -0.0965365 0.000727778)
(0.00734739 -0.0816878 -4.90832e-05)
(0.00760705 -0.0667768 -0.000907283)
(0.00770874 -0.0519425 -0.00160826)
(0.00778433 -0.0375259 -0.00231657)
(0.00768251 -0.0232743 -0.0029377)
(0.00739464 -0.00896871 -0.00334236)
(0.00709685 0.00480313 -0.00347818)
(0.00677156 0.0162824 -0.00332836)
(0.00616076 0.0313538 -0.00263013)
(0.00534991 0.0516528 -0.00104135)
(0.00434077 0.0802598 0.00165542)
(0.00306245 0.116378 0.00493968)
(0.00178375 0.148179 0.00710171)
(0.000629965 0.15976 0.00662378)
(1.5908e-05 0.099636 0.00221024)
(6.73301e-05 -0.0638088 0.000954244)
(0.000462627 -0.152432 0.00249653)
(0.000865311 -0.195858 0.00317244)
(0.00122142 -0.212156 0.00334129)
(0.00156039 -0.218215 0.00336213)
(0.00190536 -0.220099 0.00334537)
(0.00224885 -0.219525 0.00332576)
(0.00259342 -0.217045 0.0033162)
(0.00293094 -0.212978 0.00332274)
(0.00326315 -0.207516 0.00334655)
(0.00358889 -0.200785 0.00338302)
(0.00390814 -0.192889 0.00342336)
(0.00422046 -0.183921 0.0034551)
(0.00452519 -0.173969 0.00346176)
(0.00482242 -0.16312 0.00342333)
(0.00511482 -0.151444 0.00331712)
(0.00540769 -0.138991 0.00311844)
(0.00570846 -0.125788 0.00280211)
(0.00602411 -0.111906 0.00234855)
(0.00635441 -0.09742 0.00174722)
(0.00669055 -0.0824213 0.00099855)
(0.00699628 -0.067071 0.000117815)
(0.00727213 -0.0516485 -0.000864757)
(0.00742119 -0.0362081 -0.00175283)
(0.0074562 -0.0203022 -0.00264096)
(0.00732023 -0.00491176 -0.00336165)
(0.00720586 0.00728347 -0.00377161)
(0.00698962 0.0210131 -0.00393154)
(0.00645849 0.03732 -0.00355857)
(0.00567451 0.0580656 -0.00225344)
(0.00467539 0.0863755 0.000403935)
(0.00343117 0.122066 0.00398182)
(0.00214764 0.153149 0.00644737)
(0.000862046 0.163754 0.00624386)
(2.34204e-05 0.101648 0.00222132)
(4.86379e-05 -0.0665632 0.00114097)
(0.000371032 -0.157641 0.00278779)
(0.000690694 -0.201389 0.00342358)
(0.00098148 -0.217545 0.00357778)
(0.00126788 -0.223481 0.00360877)
(0.00156752 -0.225264 0.00361812)
(0.0018726 -0.224583 0.00363781)
(0.00218296 -0.22199 0.0036815)
(0.00249217 -0.217807 0.00375352)
(0.00280077 -0.212226 0.00385383)
(0.00310769 -0.20537 0.0039765)
(0.00341284 -0.19734 0.00411124)
(0.00371621 -0.18822 0.00424364)
(0.00401742 -0.178085 0.004355)
(0.00431511 -0.167013 0.00442212)
(0.00460685 -0.155086 0.0044183)
(0.00489068 -0.142386 0.00431536)
(0.00516784 -0.12898 0.00408583)
(0.00544302 -0.114906 0.00370466)
(0.005723 -0.100184 0.00315283)
(0.00601424 -0.0848517 0.00242043)
(0.00631231 -0.0690209 0.00151949)
(0.00659529 -0.0528639 0.000492564)
(0.00679932 -0.0365559 -0.000602642)
(0.00696262 -0.0200116 -0.00169088)
(0.00701797 -0.00401629 -0.00266933)
(0.00697427 0.0088612 -0.00333158)
(0.00676571 0.0241594 -0.00384299)
(0.00631824 0.0419837 -0.00396236)
(0.00557111 0.0644661 -0.00337228)
(0.00445674 0.0942668 -0.00155903)
(0.00296545 0.130629 0.00149305)
(0.00157772 0.161179 0.00404341)
(0.000415388 0.169781 0.00437925)
(-0.000118119 0.103143 0.00115423)
(6.08501e-05 -0.067826 0.00133697)
(0.000299346 -0.159432 0.00306097)
(0.000465035 -0.202974 0.00365328)
(0.000618498 -0.218986 0.00379356)
(0.000778648 -0.2249 0.00382901)
(0.000958594 -0.226665 0.00385246)
(0.00115366 -0.225947 0.00389477)
(0.0013611 -0.22331 0.00396957)
(0.00157728 -0.219079 0.00408165)
(0.00180108 -0.213454 0.00423179)
(0.00203188 -0.206565 0.00441483)
(0.00226965 -0.198516 0.00462074)
(0.00251449 -0.189394 0.00483479)
(0.00276656 -0.179275 0.00503754)
(0.00302583 -0.16822 0.00520443)
(0.00329129 -0.156286 0.00530606)
(0.00356005 -0.143533 0.00530927)
(0.00382739 -0.130035 0.00518017)
(0.00408922 -0.115881 0.00488924)
(0.00434558 -0.101157 0.00441651)
(0.00460305 -0.0858826 0.00374776)
(0.00487031 -0.0700065 0.00287288)
(0.00512442 -0.0535606 0.00180152)
(0.00539193 -0.0366707 0.000577062)
(0.00550634 -0.0193011 -0.000551667)
(0.00554712 -0.0023597 -0.00163294)
(0.0054197 0.0118042 -0.00235198)
(0.00511171 0.0284643 -0.00284128)
(0.00460956 0.0480723 -0.00292753)
(0.00388239 0.072943 -0.00249803)
(0.00291091 0.10495 -0.00139751)
(0.00171556 0.141175 0.000369672)
(0.000748308 0.168376 0.00187589)
(9.06843e-05 0.173097 0.00216774)
(-7.76978e-05 0.102871 0.000617316)
(2.21292e-05 -0.0699657 0.00161291)
(0.000101974 -0.163227 0.00330402)
(0.000100626 -0.206827 0.00377867)
(0.000108476 -0.222904 0.00392252)
(0.000148432 -0.228846 0.00400643)
(0.000219119 -0.230637 0.00409789)
(0.000319651 -0.229929 0.00422261)
(0.000446594 -0.227301 0.00439245)
(0.0005958 -0.223076 0.0046119)
(0.00076489 -0.217459 0.00488105)
(0.000952801 -0.210578 0.00519429)
(0.00115875 -0.202533 0.00554071)
(0.0013818 -0.193406 0.00590399)
(0.00162082 -0.183266 0.00626204)
(0.00187466 -0.172174 0.00658659)
(0.0021422 -0.16018 0.00684345)
(0.00242218 -0.147331 0.00699319)
(0.00271232 -0.133669 0.00699308)
(0.00300827 -0.119253 0.00680205)
(0.0033032 -0.104173 0.00638929)
(0.00359208 -0.0885112 0.00573761)
(0.00387752 -0.07228 0.0048445)
(0.0041674 -0.0553865 0.00372016)
(0.00445112 -0.037676 0.00238494)
(0.00470629 -0.0192648 0.00089695)
(0.00483263 -0.000990183 -0.000468645)
(0.00480999 0.0144398 -0.00142675)
(0.00458787 0.0323289 -0.0020783)
(0.00415061 0.0528368 -0.00212586)
(0.00354808 0.0781466 -0.00141259)
(0.00287635 0.110183 -4.69584e-05)
(0.00211565 0.145803 0.00145784)
(0.00136479 0.171558 0.00231125)
(0.000611393 0.174678 0.00218552)
(4.37506e-05 0.103388 0.000767109)
(2.54771e-05 -0.0706783 0.00180164)
(-9.25867e-05 -0.163761 0.00329383)
(-0.000327415 -0.207163 0.00358495)
(-0.000510426 -0.22331 0.00372388)
(-0.000633754 -0.229418 0.0038537)
(-0.000702673 -0.231364 0.00400193)
(-0.00072158 -0.230818 0.00419512)
(-0.000694546 -0.228344 0.00444477)
(-0.000628473 -0.224268 0.00475742)
(-0.00052562 -0.218802 0.0051354)
(-0.000386763 -0.212082 0.00557614)
(-0.000212338 -0.204208 0.0060718)
(-3.10309e-06 -0.19526 0.00660871)
(0.000239744 -0.185303 0.00716608)
(0.000514472 -0.17439 0.00771476)
(0.000818645 -0.162564 0.00821658)
(0.00114992 -0.149863 0.00862359)
(0.00150649 -0.136324 0.00887994)
(0.00188635 -0.121993 0.0089272)
(0.00228634 -0.106939 0.00871212)
(0.00270255 -0.0912289 0.008191)
(0.00313374 -0.074912 0.00733994)
(0.00358867 -0.0579749 0.00616184)
(0.00408892 -0.0402362 0.00467412)
(0.00462315 -0.0212912 0.00289868)
(0.00511969 -0.00177359 0.00100477)
(0.00541371 0.0148812 -0.000457417)
(0.00550804 0.0346362 -0.00189478)
(0.00525994 0.0566437 -0.00268676)
(0.00468961 0.0825938 -0.00241284)
(0.00386732 0.114636 -0.00085735)
(0.00279961 0.150695 0.0013631)
(0.00172664 0.177301 0.00279718)
(0.000681611 0.180299 0.00280992)
(-4.76028e-05 0.106363 0.000856437)
(-2.15416e-05 -0.0713225 0.0019713)
(-0.000231929 -0.164455 0.00321987)
(-0.000516321 -0.208288 0.0032184)
(-0.000720778 -0.224944 0.00335751)
(-0.000887869 -0.231536 0.00347507)
(-0.00100633 -0.233844 0.00364659)
(-0.00108055 -0.233598 0.0038873)
(-0.0011062 -0.231398 0.00420131)
(-0.00108447 -0.227591 0.0045931)
(-0.00101584 -0.222406 0.00506647)
(-0.000900538 -0.215977 0.00562296)
(-0.000739814 -0.208399 0.00626036)
(-0.000536245 -0.199748 0.00697158)
(-0.000293367 -0.190077 0.00774296)
(-1.56009e-05 -0.17943 0.0085521)
(0.00029289 -0.167839 0.00936469)
(0.000627894 -0.15533 0.0101333)
(0.000984702 -0.141928 0.0107972)
(0.00135977 -0.12767 0.0112818)
(0.00174994 -0.112616 0.011506)
(0.00215348 -0.0968315 0.0113877)
(0.00257356 -0.0803974 0.0108618)
(0.00302187 -0.0633762 0.00989655)
(0.00351957 -0.0456462 0.00848412)
(0.00406629 -0.0263544 0.0065648)
(0.00459014 -0.00576694 0.00426475)
(0.00489373 0.0128508 0.00218572)
(0.00500428 0.0352159 -0.0001429)
(0.00475125 0.0603563 -0.00208596)
(0.00405251 0.0895077 -0.00313463)
(0.00293904 0.123874 -0.00271449)
(0.0015952 0.160357 -0.000937851)
(0.000606091 0.185071 0.000709788)
(-1.4329e-05 0.185164 0.00130187)
(-0.000152865 0.106454 0.000404827)
(-6.9912e-05 -0.0713146 0.00205862)
(-0.000382743 -0.164436 0.00276514)
(-0.000724279 -0.2083 0.0023458)
(-0.000989758 -0.225086 0.00230965)
(-0.00116934 -0.231754 0.00244981)
(-0.00130066 -0.234193 0.00263745)
(-0.00138249 -0.23416 0.00288931)
(-0.00141436 -0.232226 0.00321387)
(-0.00139696 -0.22872 0.00361868)
(-0.00133103 -0.223861 0.0041106)
(-0.00121791 -0.21777 0.00469702)
(-0.00105951 -0.210531 0.00538459)
(-0.00085985 -0.20221 0.00617735)
(-0.000624565 -0.192854 0.00707489)
(-0.000360133 -0.182502 0.00806966)
(-7.38646e-05 -0.171181 0.00914435)
(0.000226135 -0.158912 0.0102678)
(0.00053249 -0.145712 0.0113885)
(0.000839827 -0.13161 0.0124315)
(0.00114507 -0.116656 0.0132995)
(0.00144673 -0.100916 0.0138773)
(0.00175042 -0.0844972 0.0140511)
(0.00207235 -0.0674924 0.0137337)
(0.00242945 -0.0497437 0.0128673)
(0.00282621 -0.0298871 0.0112599)
(0.00317987 -0.00811471 0.00898111)
(0.00326233 0.0127842 0.00662822)
(0.00317606 0.0370019 0.00445151)
(0.00289144 0.0653649 0.00178645)
(0.0023553 0.0977177 -0.000377427)
(0.00155616 0.133708 -0.00160827)
(0.000730728 0.168333 -0.00151016)
(0.000232972 0.189036 -0.000731848)
(-1.76085e-05 0.185941 5.07322e-05)
(1.19353e-05 0.105345 0.000514159)
(-9.82329e-05 -0.0707687 0.00180222)
(-0.000463269 -0.163707 0.00171612)
(-0.000763675 -0.208355 0.00133263)
(-0.00098484 -0.22613 0.0011918)
(-0.00106936 -0.233452 0.00119603)
(-0.00110479 -0.236377 0.00132404)
(-0.00108257 -0.236716 0.00153572)
(-0.00100755 -0.23513 0.00182506)
(-0.000882384 -0.231957 0.00218968)
(-0.000710464 -0.227423 0.0026327)
(-0.000495195 -0.221656 0.00316245)
(-0.000239558 -0.214736 0.00379148)
(5.1154e-05 -0.206717 0.00453363)
(0.000369172 -0.197638 0.00540263)
(0.000704799 -0.187527 0.00641095)
(0.00104703 -0.176406 0.00756608)
(0.00138544 -0.16429 0.00886396)
(0.00170815 -0.151195 0.010283)
(0.00201782 -0.137166 0.0117667)
(0.0023108 -0.122252 0.0132452)
(0.00258145 -0.106524 0.0146003)
(0.00283269 -0.090116 0.0156724)
(0.00306996 -0.0731703 0.0163007)
(0.00329914 -0.0553303 0.0163332)
(0.003599 -0.0352202 0.0155045)
(0.00396393 -0.0122979 0.0136088)
(0.00403466 0.0123249 0.0108651)
(0.00386778 0.0361691 0.00813514)
(0.00384384 0.0661847 0.00612963)
(0.00342232 0.0998469 0.00412368)
(0.00306436 0.136289 0.00264216)
(0.00251346 0.170747 0.001642)
(0.00184292 0.191021 0.00125942)
(0.00107684 0.187543 0.00126459)
(0.000217925 0.10657 0.00117459)
(-8.51023e-05 -0.0700337 0.00129355)
(-0.000313757 -0.162982 0.000824848)
(-0.000451601 -0.208326 9.78204e-05)
(-0.000414243 -0.226763 -0.000513609)
(-0.000332497 -0.234475 -0.000621773)
(-0.000181537 -0.237715 -0.000558063)
(1.32221e-05 -0.23837 -0.000409075)
(0.000253173 -0.237107 -0.000200548)
(0.000538821 -0.234258 6.18013e-05)
(0.000865446 -0.230038 0.000380852)
(0.00123085 -0.224576 0.000766628)
(0.00163053 -0.217941 0.0012346)
(0.00205762 -0.210176 0.001804)
(0.00250287 -0.201313 0.00249753)
(0.00295398 -0.191377 0.00334045)
(0.00339487 -0.180393 0.00435633)
(0.00382303 -0.168386 0.00556127)
(0.00418251 -0.1554 0.00699539)
(0.00453391 -0.141631 0.00849653)
(0.00475048 -0.126877 0.0103112)
(0.00489903 -0.111264 0.0123278)
(0.00500712 -0.0949521 0.0143289)
(0.00509437 -0.0779947 0.0160601)
(0.0051866 -0.0602879 0.0172578)
(0.00539176 -0.0413132 0.0176974)
(0.00574236 -0.0180257 0.0167652)
(0.00600294 0.00964627 0.0141376)
(0.00610743 0.0340622 0.0112767)
(0.00589935 0.0657003 0.00803172)
(0.00557242 0.100398 0.00567117)
(0.0048331 0.138381 0.00461655)
(0.00378106 0.175294 0.0041879)
(0.00256701 0.197876 0.00384879)
(0.00132675 0.195073 0.00337354)
(0.000154163 0.112079 0.00217375)
(-5.9532e-05 -0.0698697 0.000843823)
(-4.57297e-05 -0.163078 -0.000496909)
(0.000242768 -0.209895 -0.00199948)
(0.000598502 -0.229445 -0.00239084)
(0.00103466 -0.237776 -0.00248011)
(0.00149932 -0.241414 -0.00248413)
(0.00198835 -0.242394 -0.00244424)
(0.00248956 -0.241451 -0.00237572)
(0.00302302 -0.238883 -0.00227799)
(0.00356953 -0.234912 -0.00214513)
(0.00413233 -0.229669 -0.00197223)
(0.00470285 -0.223214 -0.00174554)
(0.00527143 -0.215577 -0.0014452)
(0.00582657 -0.206774 -0.00104523)
(0.00634644 -0.19682 -0.000518751)
(0.00677888 -0.185748 0.000138289)
(0.00720096 -0.173572 0.000870803)
(0.0074201 -0.160116 0.002291)
(0.00748377 -0.14544 0.00435539)
(0.00746781 -0.130082 0.00665185)
(0.0073627 -0.11427 0.00904614)
(0.00719872 -0.0981186 0.0114548)
(0.00701371 -0.0816719 0.0137793)
(0.00683914 -0.0647606 0.0158978)
(0.00670923 -0.0466421 0.0176509)
(0.00663671 -0.0239974 0.0184176)
(0.00662798 0.00472299 0.0171986)
(0.00651116 0.0312031 0.0145866)
(0.00614582 0.066732 0.00937339)
(0.00531704 0.105555 0.00531556)
(0.00404748 0.146349 0.00337636)
(0.00257597 0.184485 0.00321049)
(0.00139214 0.206345 0.00347845)
(0.000513213 0.201732 0.00342834)
(-4.72787e-05 0.113856 0.00209814)
(1.0744e-05 -0.0704203 -0.000322037)
(0.000508773 -0.164814 -0.00227169)
(0.00129525 -0.212689 -0.00329302)
(0.00207552 -0.233084 -0.00381323)
(0.00285151 -0.241824 -0.00407985)
(0.00361981 -0.245648 -0.00424523)
(0.00438271 -0.246717 -0.00436702)
(0.00510513 -0.245864 -0.00446929)
(0.00583744 -0.243346 -0.00457186)
(0.0065343 -0.239372 -0.00465935)
(0.00720839 -0.234071 -0.00472883)
(0.00784365 -0.227485 -0.00476702)
(0.00842661 -0.219621 -0.00475018)
(0.00893779 -0.210463 -0.00464231)
(0.00930197 -0.199985 -0.00439696)
(0.00968067 -0.18809 -0.00389827)
(0.00957391 -0.174665 -0.00218196)
(0.00952821 -0.160411 -0.000374911)
(0.00927421 -0.145525 0.00164133)
(0.00892717 -0.130173 0.0038271)
(0.00852505 -0.11446 0.00616434)
(0.00808339 -0.098465 0.00860186)
(0.00762238 -0.0822322 0.0110472)
(0.00716748 -0.0655829 0.0134118)
(0.00670568 -0.047687 0.015673)
(0.00617762 -0.025333 0.0175623)
(0.00559034 0.00311943 0.0183458)
(0.00514202 0.0314538 0.0172136)
(0.00452348 0.070216 0.013422)
(0.00375549 0.113092 0.00799196)
(0.00267186 0.155903 0.0039163)
(0.00155486 0.192449 0.00248847)
(0.000822418 0.210982 0.00255581)
(0.00028249 0.20359 0.00281198)
(1.0142e-05 0.113628 0.00200278)
(8.12357e-05 -0.0728083 -0.000756961)
(0.000963003 -0.169764 -0.00251056)
(0.00221116 -0.218361 -0.00355713)
(0.00338174 -0.238998 -0.00417903)
(0.00447891 -0.247812 -0.00461666)
(0.00551392 -0.251645 -0.0049806)
(0.00650925 -0.252663 -0.00531061)
(0.00740243 -0.25173 -0.00560176)
(0.00827959 -0.249038 -0.00590849)
(0.00906888 -0.24479 -0.00620919)
(0.00979602 -0.239102 -0.00650705)
(0.0104403 -0.232 -0.00679374)
(0.0109912 -0.223468 -0.00703845)
(0.0113817 -0.213415 -0.0071631)
(0.0117781 -0.201709 -0.00713533)
(0.0116583 -0.188506 -0.00619864)
(0.0116714 -0.174292 -0.0056441)
(0.0113594 -0.159299 -0.0049118)
(0.0109327 -0.143863 -0.00375951)
(0.0104135 -0.128247 -0.00209266)
(0.00984128 -0.112559 4.04503e-05)
(0.00926529 -0.0968369 0.00253086)
(0.00869906 -0.0811181 0.00521423)
(0.0081366 -0.0651281 0.00797188)
(0.00750933 -0.0469265 0.0108154)