/*--------------------------------*- C++ -*----------------------------------*\
  =========                 |
  \\      /  F ield         | OpenFOAM: The Open Source CFD Toolbox
   \\    /   O peration     | Website:  https://openfoam.org
    \\  /    A nd           | Version:  11
     \\/     M anipulation  |
\*---------------------------------------------------------------------------*/
FoamFile
{
    format      ascii;
    class       volScalarField;
    location    "700";
    object      alphat;
}
// * * * * * * * * * * * * * * * * * * * * * * * * * * * * * * * * * * * * * //

dimensions      [1 -1 -1 0 0 0 0];

internalField   nonuniform List<scalar> 
78750
(
9.3494e-09
1.85272e-06
2.26968e-05
2.51959e-05
2.59865e-05
2.71126e-05
2.73941e-05
2.74434e-05
2.76545e-05
2.79999e-05
2.85624e-05
2.9105e-05
2.97157e-05
3.04455e-05
3.11889e-05
3.19696e-05
3.27928e-05
3.37071e-05
3.42981e-05
3.53154e-05
3.47129e-05
3.58186e-05
3.81543e-05
3.70873e-05
3.75787e-05
3.87222e-05
3.93668e-05
3.90044e-05
3.74011e-05
3.56975e-05
3.4435e-05
3.41128e-05
3.04969e-05
5.59319e-06
3.68733e-08
3.12618e-09
7.97372e-07
1.10701e-05
1.14233e-05
1.43082e-05
1.97026e-05
2.68853e-05
3.34355e-05
3.78734e-05
4.0359e-05
4.35806e-05
4.63941e-05
4.78054e-05
5.06843e-05
5.29477e-05
5.53281e-05
5.74248e-05
6.20083e-05
6.71631e-05
6.78175e-05
6.73224e-05
6.58129e-05
6.44362e-05
6.21657e-05
6.06339e-05
5.74953e-05
4.35423e-05
4.53472e-05
4.59781e-05
3.61299e-05
3.15693e-05
2.83937e-05
2.41874e-05
3.63498e-06
1.96847e-08
2.57071e-09
6.64875e-07
6.90833e-06
1.21507e-05
2.29085e-05
3.97342e-05
5.36993e-05
6.27116e-05
6.87938e-05
7.22665e-05
7.47198e-05
7.63342e-05
7.78896e-05
7.86266e-05
7.90949e-05
7.92158e-05
7.79301e-05
7.13427e-05
6.71709e-05
6.97799e-05
7.07064e-05
6.76043e-05
6.30582e-05
5.9331e-05
5.49593e-05
4.35506e-05
4.54201e-05
4.62599e-05
3.43707e-05
2.75938e-05
2.33776e-05
2.11186e-05
1.86065e-05
2.12277e-06
9.58496e-09
3.55961e-09
9.18832e-07
8.24609e-06
2.17583e-05
4.30416e-05
6.06504e-05
7.13998e-05
7.83401e-05
8.28407e-05
8.51105e-05
8.59933e-05
8.56519e-05
8.44968e-05
8.25848e-05
8.00217e-05
7.69575e-05
7.36846e-05
7.0146e-05
6.51658e-05
5.8829e-05
5.36746e-05
4.98274e-05
4.69812e-05
4.57342e-05
4.16806e-05
3.35632e-05
3.51579e-05
3.54589e-05
2.72311e-05
2.30373e-05
1.87094e-05
1.54462e-05
1.30419e-05
1.33974e-06
5.52084e-09
4.973e-09
1.27471e-06
9.74132e-06
2.6013e-05
4.923e-05
6.66766e-05
7.57313e-05
8.05292e-05
8.27632e-05
8.35918e-05
8.2988e-05
8.13149e-05
7.87971e-05
7.54271e-05
7.14528e-05
6.71057e-05
6.25806e-05
5.79007e-05
5.43635e-05
5.19428e-05
4.93956e-05
4.65612e-05
4.43966e-05
4.30642e-05
3.91737e-05
3.27029e-05
3.41873e-05
3.3502e-05
2.52656e-05
1.9804e-05
1.54303e-05
1.2782e-05
1.25395e-05
1.14451e-06
4.49281e-09
6.3033e-09
1.59917e-06
1.23603e-05
3.41223e-05
6.06762e-05
7.65733e-05
8.44603e-05
8.83829e-05
8.94713e-05
8.88827e-05
8.70303e-05
8.4244e-05
8.05929e-05
7.6338e-05
7.1706e-05
6.68987e-05
6.21027e-05
5.71335e-05
5.22389e-05
4.86112e-05
4.61809e-05
4.40485e-05
4.20017e-05
3.97642e-05
3.58386e-05
3.11766e-05
3.29785e-05
3.21061e-05
2.40699e-05
1.81619e-05
1.3323e-05
1.08065e-05
1.05372e-05
9.77515e-07
3.87822e-09
7.48601e-09
1.88371e-06
1.29449e-05
3.59194e-05
6.30763e-05
7.78436e-05
8.44229e-05
8.71124e-05
8.72378e-05
8.58177e-05
8.31159e-05
7.9585e-05
7.53741e-05
7.07342e-05
6.5963e-05
6.13378e-05
5.69983e-05
5.33462e-05
5.04235e-05
4.81094e-05
4.57288e-05
4.33292e-05
4.12674e-05
3.92379e-05
3.58878e-05
3.18415e-05
3.33494e-05
3.14063e-05
2.28564e-05
1.64932e-05
1.18977e-05
9.70056e-06
1.06563e-05
1.00258e-06
3.87155e-09
8.33729e-09
2.08452e-06
1.45366e-05
4.04605e-05
6.84676e-05
8.26837e-05
8.88324e-05
9.10031e-05
9.06018e-05
8.853e-05
8.52324e-05
8.11795e-05
7.65101e-05
7.14626e-05
6.63607e-05
6.15162e-05
5.70494e-05
5.29299e-05
4.92167e-05
4.59218e-05
4.33668e-05
4.14558e-05
3.95212e-05
3.71037e-05
3.44684e-05
3.26006e-05
3.50191e-05
3.18334e-05
2.2319e-05
1.5523e-05
1.10145e-05
9.61846e-06
1.13585e-05
9.49597e-07
3.61701e-09
9.51774e-09
2.36165e-06
1.4983e-05
4.16108e-05
6.95912e-05
8.29964e-05
8.84517e-05
8.99167e-05
8.89546e-05
8.64434e-05
8.28746e-05
7.85909e-05
7.3785e-05
6.87798e-05
6.37999e-05
5.90485e-05
5.47241e-05
5.10316e-05
4.80354e-05
4.55022e-05
4.36843e-05
4.24376e-05
4.08713e-05
3.85403e-05
3.57815e-05
3.37167e-05
3.5358e-05
3.09976e-05
2.13147e-05
1.45038e-05
1.04118e-05
9.48723e-06
1.05308e-05
9.07957e-07
3.51152e-09
1.01373e-08
2.50459e-06
1.59294e-05
4.40093e-05
7.22344e-05
8.54115e-05
9.0569e-05
9.16675e-05
9.0368e-05
8.75559e-05
8.37075e-05
7.91238e-05
7.4105e-05
6.89747e-05
6.39155e-05
5.90956e-05
5.47213e-05
5.10228e-05
4.77929e-05
4.48075e-05
4.22831e-05
4.03865e-05
3.8868e-05
3.68928e-05
3.47467e-05
3.69166e-05
3.61389e-05
2.81008e-05
2.04736e-05
1.39981e-05
1.00672e-05
8.99341e-06
1.14478e-05
9.24897e-07
3.5426e-09
1.13735e-08
2.78873e-06
1.64201e-05
4.51895e-05
7.30757e-05
8.54652e-05
9.01436e-05
9.09516e-05
8.9477e-05
8.65367e-05
8.26199e-05
7.80553e-05
7.30277e-05
6.78185e-05
6.27466e-05
5.79724e-05
5.35546e-05
4.9617e-05
4.6325e-05
4.3799e-05
4.21146e-05
4.08989e-05
3.9628e-05
3.76176e-05
3.53524e-05
3.74848e-05
3.63397e-05
2.81053e-05
2.06002e-05
1.39852e-05
9.80594e-06
8.64532e-06
1.14701e-05
9.15347e-07
3.49487e-09
1.1933e-08
2.91512e-06
1.698e-05
4.64633e-05
7.44484e-05
8.67237e-05
9.1229e-05
9.18058e-05
9.00868e-05
8.69302e-05
8.28332e-05
7.81088e-05
7.31204e-05
6.83341e-05
6.3556e-05
5.86695e-05
5.40312e-05
4.98931e-05
4.65206e-05
4.39768e-05
4.19158e-05
4.01679e-05
3.85801e-05
3.65713e-05
3.47943e-05
3.7144e-05
3.58497e-05
2.75352e-05
1.97624e-05
1.32931e-05
9.46459e-06
8.62667e-06
1.22212e-05
9.12437e-07
3.47458e-09
1.33011e-08
3.22337e-06
1.75628e-05
4.77735e-05
7.53714e-05
8.70363e-05
9.12477e-05
9.16942e-05
8.9943e-05
8.67926e-05
8.27234e-05
7.80579e-05
7.29815e-05
6.74338e-05
6.20153e-05
5.72016e-05
5.2893e-05
4.92676e-05
4.62762e-05
4.36883e-05
4.14731e-05
3.97673e-05
3.81377e-05
3.60648e-05
3.46228e-05
3.68804e-05
3.50922e-05
2.6746e-05
1.89873e-05
1.2779e-05
9.31044e-06
8.81317e-06
1.29647e-05
9.20117e-07
3.56314e-09
1.39349e-08
3.36328e-06
1.80448e-05
4.88101e-05
7.64272e-05
8.79863e-05
9.20576e-05
9.232e-05
9.0374e-05
8.70428e-05
8.28137e-05
7.79979e-05
7.28536e-05
6.76564e-05
6.26066e-05
5.78247e-05
5.3508e-05
4.9741e-05
4.64842e-05
4.37189e-05
4.14342e-05
3.93823e-05
3.67915e-05
3.43145e-05
3.60484e-05
3.88238e-05
3.312e-05
2.56402e-05
1.91203e-05
1.32043e-05
9.57007e-06
8.94483e-06
1.31446e-05
9.50561e-07
3.73509e-09
1.53775e-08
3.68047e-06
1.87341e-05
5.02503e-05
7.74351e-05
8.85119e-05
9.23718e-05
9.25511e-05
9.06038e-05
8.73088e-05
8.31223e-05
7.83272e-05
7.3164e-05
6.78333e-05
6.25703e-05
5.76558e-05
5.32506e-05
4.94446e-05
4.62496e-05
4.36097e-05
4.15688e-05
3.97864e-05
3.74271e-05
3.53111e-05
3.7314e-05
3.91906e-05
3.28688e-05
2.56218e-05
1.93142e-05
1.3556e-05
9.73648e-06
8.99291e-06
1.34943e-05
9.68232e-07
3.72933e-09
1.60528e-08
3.82638e-06
1.92532e-05
5.12846e-05
7.83738e-05
8.93515e-05
9.31057e-05
9.31534e-05
9.10743e-05
8.76712e-05
8.34191e-05
7.86624e-05
7.37073e-05
6.87463e-05
6.38293e-05
5.89894e-05
5.44322e-05
5.03795e-05
4.68625e-05
4.38279e-05
4.11229e-05
3.89404e-05
3.71647e-05
3.59177e-05
3.79599e-05
3.71117e-05
3.06139e-05
2.41273e-05
1.7684e-05
1.26297e-05
9.71387e-06
9.64747e-06
1.5547e-05
9.66331e-07
3.68884e-09
1.7441e-08
4.12606e-06
1.99632e-05
5.26938e-05
7.937e-05
8.99634e-05
9.35363e-05
9.35202e-05
9.14646e-05
8.81426e-05
8.39914e-05
7.93061e-05
7.4329e-05
6.92613e-05
6.42573e-05
5.93777e-05
5.46241e-05
5.01687e-05
4.63543e-05
4.33002e-05
4.07089e-05
3.82179e-05
3.60892e-05
3.49056e-05
3.64668e-05
3.518e-05
2.90958e-05
2.28869e-05
1.67416e-05
1.21294e-05
9.76757e-06
1.01945e-05
1.64523e-05
9.64752e-07
3.7231e-09
1.80133e-08
4.2474e-06
2.04435e-05
5.3619e-05
8.0141e-05
9.06324e-05
9.41245e-05
9.405e-05
9.19658e-05
8.86541e-05
8.45455e-05
7.99439e-05
7.50822e-05
7.01432e-05
6.5261e-05
6.05237e-05
5.59651e-05
5.15673e-05
4.73174e-05
4.34741e-05
4.02843e-05
3.75084e-05
3.51856e-05
3.3883e-05
3.56689e-05
3.47026e-05
2.89988e-05
2.34882e-05
1.75825e-05
1.26942e-05
9.95316e-06
9.98496e-06
1.56949e-05
9.81741e-07
3.88512e-09
1.92415e-08
4.50735e-06
2.11059e-05
5.48859e-05
8.10246e-05
9.125e-05
9.47242e-05
9.47865e-05
9.2926e-05
8.98792e-05
8.60288e-05
8.16496e-05
7.68995e-05
7.19465e-05
6.6931e-05
6.19887e-05
5.72483e-05
5.2796e-05
4.85905e-05
4.45278e-05
4.06711e-05
3.72942e-05
3.47012e-05
3.33012e-05
3.53011e-05
3.446e-05
2.90016e-05
2.40841e-05
1.86042e-05
1.35001e-05
1.01604e-05
9.86277e-06
1.59076e-05
1.01372e-06
3.92705e-09
1.97516e-08
4.61416e-06
2.14753e-05
5.55467e-05
8.16475e-05
9.19482e-05
9.55682e-05
9.58131e-05
9.41414e-05
9.12802e-05
8.7593e-05
8.33426e-05
7.86998e-05
7.38364e-05
6.88886e-05
6.39683e-05
5.91719e-05
5.45858e-05
5.02269e-05
4.60316e-05
4.1914e-05
3.79299e-05
3.45129e-05
3.23861e-05
3.32901e-05
3.1927e-05
2.67986e-05
2.19789e-05
1.71797e-05
1.31734e-05
1.0714e-05
1.10827e-05
1.86521e-05
1.02698e-06
3.95374e-09
2.08294e-08
4.84002e-06
2.19982e-05
5.64298e-05
8.24163e-05
9.27679e-05
9.65683e-05
9.70692e-05
9.56777e-05
9.30939e-05
8.96508e-05
8.55701e-05
8.10092e-05
7.6122e-05
7.10512e-05
6.59324e-05
6.08915e-05
5.60337e-05
5.13885e-05
4.69199e-05
4.2538e-05
3.81622e-05
3.38808e-05
3.06317e-05
3.03059e-05
2.88128e-05
2.46091e-05
2.03482e-05
1.61086e-05
1.28752e-05
1.12603e-05
1.23138e-05
1.96102e-05
1.05803e-06
4.09021e-09
2.11301e-08
4.90239e-06
2.22503e-05
5.6713e-05
8.27916e-05
9.34646e-05
9.75409e-05
9.82922e-05
9.71201e-05
9.47354e-05
9.14702e-05
8.75314e-05
8.30852e-05
7.82829e-05
7.32663e-05
6.81631e-05
6.30814e-05
5.8103e-05
5.3248e-05
4.85231e-05
4.38862e-05
3.91696e-05
3.41517e-05
2.99496e-05
2.91389e-05
2.73542e-05
2.33557e-05
2.00522e-05
1.64294e-05
1.31847e-05
1.13319e-05
1.20695e-05
1.91041e-05
1.10918e-06
4.414e-09
2.18962e-08
5.0452e-06
2.24959e-05
5.66005e-05
8.31039e-05
9.41815e-05
9.86514e-05
9.98116e-05
9.90477e-05
9.70593e-05
9.41571e-05
9.05214e-05
8.62918e-05
8.16044e-05
7.65999e-05
7.142e-05
6.62017e-05
6.10587e-05
5.60252e-05
5.11255e-05
4.63432e-05
4.14382e-05
3.57103e-05
3.02881e-05
2.85524e-05
2.6073e-05
2.22928e-05
1.97423e-05
1.65558e-05
1.33115e-05
1.12371e-05
1.19414e-05
1.9678e-05
1.1764e-06
4.61201e-09
2.23259e-08
5.11336e-06
2.2697e-05
5.67231e-05
8.32175e-05
9.4774e-05
9.97493e-05
0.000101349
0.000100939
9.92393e-05
9.65729e-05
9.31147e-05
8.90179e-05
8.44353e-05
7.95233e-05
7.44294e-05
6.92815e-05
6.41776e-05
5.91436e-05
5.41904e-05
4.92755e-05
4.40841e-05
3.75108e-05
3.09075e-05
2.75335e-05
2.39605e-05
1.99928e-05
1.76481e-05
1.5423e-05
1.32081e-05
1.18548e-05
1.3379e-05
2.1782e-05
1.21623e-06
4.72857e-09
2.29903e-08
5.22921e-06
2.27141e-05
5.62594e-05
8.33185e-05
9.54733e-05
0.000100898
0.0001029
0.00010285
0.000101466
9.90706e-05
9.58139e-05
9.18448e-05
8.73155e-05
8.23918e-05
7.72385e-05
7.20078e-05
6.68328e-05
6.17904e-05
5.69064e-05
5.20643e-05
4.67162e-05
3.92071e-05
3.13205e-05
2.6373e-05
2.26793e-05
1.85491e-05
1.57133e-05
1.40466e-05
1.28281e-05
1.2513e-05
1.47922e-05
2.18274e-05
1.25628e-06
4.89993e-09
2.32847e-08
5.29442e-06
2.24929e-05
5.56312e-05
8.32258e-05
9.60657e-05
0.000101957
0.000104302
0.000104484
0.000103252
0.000100944
9.77183e-05
9.37313e-05
8.91681e-05
8.42276e-05
7.90776e-05
7.38794e-05
6.87887e-05
6.39212e-05
5.93255e-05
5.48527e-05
4.97888e-05
4.19777e-05
3.30959e-05
2.61626e-05
2.25212e-05
1.88083e-05
1.52868e-05
1.36479e-05
1.26959e-05
1.25568e-05
1.47919e-05
2.14181e-05
1.32828e-06
5.40903e-09
2.38221e-08
5.43308e-06
2.23299e-05
5.46849e-05
8.30518e-05
9.66906e-05
0.000103057
0.000105728
0.000106115
0.000105035
0.000102843
9.96973e-05
9.57585e-05
9.1264e-05
8.64543e-05
8.14029e-05
7.63562e-05
7.1535e-05
6.7032e-05
6.26673e-05
5.82217e-05
5.32365e-05
4.69041e-05
3.72022e-05
2.7475e-05
2.35038e-05
1.94193e-05
1.51905e-05
1.35183e-05
1.24016e-05
1.19884e-05
1.40536e-05
2.1312e-05
1.39671e-06
5.6949e-09
2.44795e-08
5.60236e-06
2.21199e-05
5.37794e-05
8.2681e-05
9.70769e-05
0.000103904
0.000106924
0.000107497
0.000106532
0.000104401
0.000101274
9.7307e-05
9.28608e-05
8.81164e-05
8.29943e-05
7.75982e-05
7.2981e-05
6.89315e-05
6.54461e-05
6.21482e-05
5.79651e-05
5.14001e-05
4.06351e-05
2.94676e-05
2.42716e-05
1.91514e-05
1.4737e-05
1.2952e-05
1.19446e-05
1.1987e-05
1.46719e-05
2.21551e-05
1.4523e-06
5.73693e-09
2.61269e-08
5.93369e-06
2.2182e-05
5.36171e-05
8.28874e-05
9.76889e-05
0.00010486
0.000108156
0.000108785
0.000107719
0.000105365
0.00010197
9.76465e-05
9.23009e-05
8.64886e-05
8.15427e-05
7.80094e-05
7.47183e-05
7.16824e-05
6.87785e-05
6.57087e-05
6.15397e-05
5.46452e-05
4.31897e-05
3.11739e-05
2.4518e-05
1.85117e-05
1.3844e-05
1.21052e-05
1.17316e-05
1.25715e-05
1.61945e-05
2.19123e-05
1.47968e-06
5.84377e-09
2.82463e-08
6.35052e-06
2.24062e-05
5.3871e-05
8.31019e-05
9.76462e-05
0.000104673
0.000107962
0.00010851
0.000107315
0.00010464
0.000100682
9.55628e-05
8.99873e-05
8.50491e-05
8.07238e-05
7.74442e-05
7.5126e-05
7.33765e-05
7.15504e-05
6.91213e-05
6.52671e-05
5.7351e-05
4.54133e-05
3.35739e-05
2.68371e-05
1.98097e-05
1.40843e-05
1.183e-05
1.14307e-05
1.26809e-05
1.66734e-05
2.16004e-05
1.54543e-06
6.35328e-09
3.08161e-08
6.84479e-06
2.27696e-05
5.42972e-05
8.32235e-05
9.72928e-05
0.000103995
0.000106987
0.000107156
0.000105537
0.000102393
9.80343e-05
9.22374e-05
8.65473e-05
8.16817e-05
7.81728e-05
7.66298e-05
7.67896e-05
7.77389e-05
7.80723e-05
7.61763e-05
7.10421e-05
6.21503e-05
4.98449e-05
3.74134e-05
3.09457e-05
2.26569e-05
1.53281e-05
1.23841e-05
1.17434e-05
1.25298e-05
1.56261e-05
2.22219e-05
1.65796e-06
6.9144e-09
3.31677e-08
7.20072e-06
2.33743e-05
5.56096e-05
8.39152e-05
9.72232e-05
0.000103552
0.000106144
0.000106125
0.000104067
0.000100142
9.42969e-05
8.86438e-05
8.28601e-05
7.7359e-05
7.42465e-05
7.40403e-05
7.66271e-05
8.09966e-05
8.48459e-05
8.47869e-05
7.92652e-05
6.96246e-05
5.65098e-05
4.2502e-05
3.42238e-05
2.45549e-05
1.65809e-05
1.30388e-05
1.16365e-05
1.21255e-05
1.5871e-05
2.28683e-05
1.75799e-06
7.05472e-09
3.52337e-08
7.42344e-06
2.42207e-05
5.75085e-05
8.49928e-05
9.73364e-05
0.000102928
0.000104667
0.000103997
0.00010087
9.60046e-05
9.06882e-05
8.40765e-05
7.73307e-05
7.25357e-05
7.06339e-05
7.20607e-05
7.68003e-05
8.37314e-05
8.98129e-05
9.04951e-05
8.46885e-05
7.56786e-05
6.36569e-05
4.89846e-05
3.6025e-05
2.37182e-05
1.60358e-05
1.27771e-05
1.17787e-05
1.28796e-05
1.78258e-05
2.19831e-05
1.78082e-06
7.14496e-09
3.70301e-08
7.64998e-06
2.50962e-05
5.9273e-05
8.57955e-05
9.70732e-05
0.000101668
0.000102445
0.000100357
9.67544e-05
9.2301e-05
8.57634e-05
7.83592e-05
7.18146e-05
6.75855e-05
6.68543e-05
7.0142e-05
7.70577e-05
8.58269e-05
9.23004e-05
9.17835e-05
8.70558e-05
8.03393e-05
6.98748e-05
5.64991e-05
3.96684e-05
2.45777e-05
1.61334e-05
1.26578e-05
1.19095e-05
1.34255e-05
1.87224e-05
2.15647e-05
1.88624e-06
7.55854e-09
3.8385e-08
7.83446e-06
2.58973e-05
6.09127e-05
8.6294e-05
9.63552e-05
9.98479e-05
9.96647e-05
9.73819e-05
9.40148e-05
8.85295e-05
8.15366e-05
7.41208e-05
6.78529e-05
6.39722e-05
6.34509e-05
6.71586e-05
7.51326e-05
8.59487e-05
9.471e-05
9.56107e-05
9.17098e-05
8.55069e-05
7.54037e-05
6.34325e-05
4.59807e-05
2.88882e-05
1.80365e-05
1.30808e-05
1.20101e-05
1.36467e-05
1.90469e-05
2.2561e-05
1.99462e-06
8.14592e-09
3.9105e-08
7.94889e-06
2.62822e-05
6.14796e-05
8.59625e-05
9.51176e-05
9.79242e-05
9.72358e-05
9.48668e-05
9.0627e-05
8.49086e-05
7.84256e-05
7.16382e-05
6.52728e-05
6.11286e-05
6.03984e-05
6.37859e-05
7.19066e-05
8.37484e-05
9.49076e-05
9.8768e-05
9.68749e-05
9.14704e-05
8.058e-05
6.79535e-05
5.03976e-05
3.34995e-05
2.16422e-05
1.48522e-05
1.24875e-05
1.33944e-05
1.85384e-05
2.27791e-05
2.13948e-06
8.66061e-09
3.94114e-08
8.00665e-06
2.6478e-05
6.15484e-05
8.52325e-05
9.38885e-05
9.6277e-05
9.54865e-05
9.2827e-05
8.86834e-05
8.36804e-05
7.75786e-05
7.09291e-05
6.43294e-05
5.89823e-05
5.68881e-05
5.937e-05
6.67663e-05
7.8631e-05
9.17229e-05
9.89077e-05
0.000100047
9.64771e-05
8.53665e-05
6.98357e-05
5.04055e-05
3.3823e-05
2.29021e-05
1.61925e-05
1.3267e-05
1.43355e-05
2.13102e-05
2.17426e-05
2.21244e-06
8.97575e-09
3.94535e-08
8.02143e-06
2.65194e-05
6.15058e-05
8.49367e-05
9.33759e-05
9.5602e-05
9.47502e-05
9.20188e-05
8.81699e-05
8.30807e-05
7.70299e-05
7.02416e-05
6.359e-05
5.78993e-05
5.4423e-05
5.46962e-05
6.06325e-05
7.21099e-05
8.55733e-05
9.52275e-05
9.94341e-05
9.83916e-05
8.90795e-05
7.07361e-05
4.9825e-05
3.33002e-05
2.25867e-05
1.66437e-05
1.4372e-05
1.60215e-05
2.36143e-05
2.0457e-05
2.2808e-06
9.22948e-09
3.97803e-08
8.05406e-06
2.65182e-05
6.09206e-05
8.44228e-05
9.29755e-05
9.52786e-05
9.43874e-05
9.18808e-05
8.81352e-05
8.31423e-05
7.70831e-05
7.02329e-05
6.30628e-05
5.67709e-05
5.2745e-05
5.17781e-05
5.46406e-05
6.28237e-05
7.59495e-05
8.92004e-05
9.75895e-05
9.77589e-05
8.92722e-05
7.20011e-05
5.15249e-05
3.44606e-05
2.32066e-05
1.72272e-05
1.51864e-05
1.70364e-05
2.47571e-05
2.10196e-05
2.43544e-06
9.89943e-09
3.99896e-08
8.07477e-06
2.64431e-05
6.00088e-05
8.32526e-05
9.21566e-05
9.46354e-05
9.38888e-05
9.14901e-05
8.76799e-05
8.28777e-05
7.73912e-05
7.1167e-05
6.42385e-05
5.71032e-05
5.09565e-05
4.779e-05
4.90619e-05
5.50764e-05
6.56231e-05
7.92554e-05
9.1207e-05
9.61323e-05
8.85407e-05
7.20177e-05
5.39846e-05
3.74317e-05
2.5209e-05
1.82467e-05
1.57924e-05
1.76321e-05
2.56083e-05
2.24182e-05
2.61208e-06
1.08972e-08
3.98353e-08
8.06618e-06
2.61393e-05
5.93779e-05
8.28139e-05
9.19728e-05
9.5043e-05
9.46444e-05
9.1868e-05
8.802e-05
8.35646e-05
7.85649e-05
7.29973e-05
6.68328e-05
6.00926e-05
5.32834e-05
4.76452e-05
4.49241e-05
4.71129e-05
5.47939e-05
6.72543e-05
8.09838e-05
9.05224e-05
8.66621e-05
7.18908e-05
5.57405e-05
4.04698e-05
2.81314e-05
1.99694e-05
1.66473e-05
1.79471e-05
2.50805e-05
2.42359e-05
2.76402e-06
1.16161e-08
3.95938e-08
8.04434e-06
2.56835e-05
5.8483e-05
8.25755e-05
9.2179e-05
9.52272e-05
9.48124e-05
9.26807e-05
8.95642e-05
8.54443e-05
8.04613e-05
7.49029e-05
6.89987e-05
6.27551e-05
5.61719e-05
4.97982e-05
4.49216e-05
4.31433e-05
4.61802e-05
5.53068e-05
6.95475e-05
8.31034e-05
8.26676e-05
7.03399e-05
5.55111e-05
4.10545e-05
2.94741e-05
2.16503e-05
1.76932e-05
1.85667e-05
2.65926e-05
2.42961e-05
2.94479e-06
1.21736e-08
3.94339e-08
8.02489e-06
2.50929e-05
5.71199e-05
8.1837e-05
9.17331e-05
9.49415e-05
9.50337e-05
9.32666e-05
9.02063e-05
8.61644e-05
8.13381e-05
7.60616e-05
7.06385e-05
6.51395e-05
5.93498e-05
5.31221e-05
4.70233e-05
4.26344e-05
4.1662e-05
4.5739e-05
5.76071e-05
7.02904e-05
7.25767e-05
6.69881e-05
5.44389e-05
4.04398e-05
2.92877e-05
2.21787e-05
1.889e-05
2.03005e-05
2.87397e-05
2.41581e-05
3.03908e-06
1.25493e-08
3.88896e-08
7.96266e-06
2.4739e-05
5.64762e-05
8.11539e-05
9.15679e-05
9.55181e-05
9.59912e-05
9.42929e-05
9.11716e-05
8.69546e-05
8.18975e-05
7.64384e-05
7.1132e-05
6.61832e-05
6.14217e-05
5.6336e-05
5.06178e-05
4.48226e-05
4.06288e-05
4.04402e-05
4.77848e-05
5.79919e-05
6.20052e-05
6.12398e-05
5.28163e-05
4.06121e-05
2.98016e-05
2.27419e-05
1.97935e-05
2.1665e-05
3.02175e-05
2.50373e-05
3.24765e-06
1.39012e-08
3.84905e-08
7.9163e-06
2.42594e-05
5.54016e-05
8.1161e-05
9.2305e-05
9.63808e-05
9.67883e-05
9.50079e-05
9.18148e-05
8.75075e-05
8.22748e-05
7.66308e-05
7.11961e-05
6.63112e-05
6.19954e-05
5.80453e-05
5.37101e-05
4.85199e-05
4.31418e-05
4.01255e-05
4.4405e-05
5.11087e-05
5.36412e-05
5.55786e-05
5.16343e-05
4.2413e-05
3.20589e-05
2.42613e-05
2.06969e-05
2.22478e-05
3.05286e-05
2.77294e-05
3.41635e-06
1.50906e-08
3.91093e-08
7.92512e-06
2.43522e-05
5.59022e-05
8.15952e-05
9.26365e-05
9.68347e-05
9.73843e-05
9.56599e-05
9.23881e-05
8.79154e-05
8.24899e-05
7.65521e-05
7.06989e-05
6.60418e-05
6.2546e-05
5.92991e-05
5.56923e-05
5.12791e-05
4.63039e-05
4.22753e-05
4.4419e-05
4.8314e-05
4.8779e-05
5.05763e-05
4.91963e-05
4.29022e-05
3.41906e-05
2.63428e-05
2.1856e-05
2.23193e-05
2.99784e-05
2.9639e-05
3.63208e-06
1.57683e-08
3.97517e-08
7.94532e-06
2.45466e-05
5.61874e-05
8.15092e-05
9.23953e-05
9.66583e-05
9.73022e-05
9.56257e-05
9.22709e-05
8.77268e-05
8.1945e-05
7.5723e-05
7.02292e-05
6.57165e-05
6.26506e-05
6.06866e-05
5.8511e-05
5.50487e-05
5.01501e-05
4.54471e-05
4.59859e-05
4.79661e-05
4.67902e-05
4.7144e-05
4.61674e-05
4.12385e-05
3.40637e-05
2.71641e-05
2.3026e-05
2.39756e-05
3.27863e-05
2.86407e-05
3.83623e-06
1.62917e-08
4.06879e-08
8.04593e-06
2.49409e-05
5.68441e-05
8.18282e-05
9.25243e-05
9.66933e-05
9.72203e-05
9.54434e-05
9.18135e-05
8.67647e-05
8.09302e-05
7.43387e-05
6.78661e-05
6.31869e-05
6.06482e-05
5.96092e-05
5.8959e-05
5.73481e-05
5.41465e-05
5.00223e-05
4.88847e-05
4.79736e-05
4.55449e-05
4.47762e-05
4.28097e-05
3.81016e-05
3.2208e-05
2.71397e-05
2.47289e-05
2.74181e-05
3.7572e-05
2.73149e-05
3.9971e-06
1.70489e-08
4.12691e-08
8.10364e-06
2.52773e-05
5.75376e-05
8.20688e-05
9.23956e-05
9.61897e-05
9.63277e-05
9.43116e-05
9.09495e-05
8.58505e-05
7.90304e-05
7.18172e-05
6.56431e-05
6.11967e-05
5.87364e-05
5.79627e-05
5.7933e-05
5.75282e-05
5.58549e-05
5.32366e-05
5.1214e-05
4.83428e-05
4.5259e-05
4.3368e-05
4.04059e-05
3.57927e-05
3.08903e-05
2.73329e-05
2.67645e-05
3.12989e-05
4.13725e-05
2.65999e-05
4.20794e-06
1.79853e-08
4.17661e-08
8.16456e-06
2.5611e-05
5.82375e-05
8.20955e-05
9.1748e-05
9.52457e-05
9.54486e-05
9.323e-05
8.90916e-05
8.33871e-05
7.66303e-05
6.96495e-05
6.34442e-05
5.89886e-05
5.66747e-05
5.62258e-05
5.67973e-05
5.72554e-05
5.68127e-05
5.52612e-05
5.31713e-05
4.98639e-05
4.6143e-05
4.31284e-05
3.97253e-05
3.52035e-05
3.07391e-05
2.7883e-05
2.80533e-05
3.31287e-05
4.28712e-05
2.72974e-05
4.44283e-06
1.90283e-08
4.18134e-08
8.18339e-06
2.57346e-05
5.83186e-05
8.1907e-05
9.14644e-05
9.47134e-05
9.43218e-05
9.17053e-05
8.73765e-05
8.17229e-05
7.51075e-05
6.8203e-05
6.20401e-05
5.7484e-05
5.4972e-05
5.44418e-05
5.52596e-05
5.63058e-05
5.65477e-05
5.59562e-05
5.51381e-05
5.23011e-05
4.80153e-05
4.44536e-05
4.06686e-05
3.61449e-05
3.15938e-05
2.85266e-05
2.86015e-05
3.37696e-05
4.41505e-05
2.87468e-05
4.78344e-06
2.09546e-08
4.17886e-08
8.18126e-06
2.57157e-05
5.84933e-05
8.20086e-05
9.10569e-05
9.36589e-05
9.28908e-05
9.02248e-05
8.62437e-05
8.09739e-05
7.457e-05
6.76406e-05
6.10858e-05
5.60172e-05
5.31945e-05
5.26214e-05
5.36975e-05
5.53762e-05
5.63271e-05
5.57487e-05
5.58885e-05
5.40362e-05
4.99296e-05
4.69266e-05
4.35729e-05
3.88607e-05
3.32518e-05
2.92798e-05
2.91172e-05
3.44675e-05
4.49775e-05
3.22092e-05
4.98411e-06
2.22582e-08
4.14174e-08
8.12087e-06
2.56631e-05
5.82912e-05
8.12102e-05
8.99453e-05
9.26398e-05
9.22227e-05
8.97857e-05
8.57975e-05
8.04958e-05
7.41251e-05
6.72267e-05
6.06611e-05
5.54088e-05
5.21683e-05
5.11761e-05
5.21277e-05
5.40595e-05
5.53987e-05
5.50169e-05
5.5426e-05
5.38371e-05
5.03702e-05
4.84798e-05
4.59722e-05
4.17442e-05
3.62432e-05
3.14213e-05
2.97839e-05
3.39397e-05
4.58851e-05
3.236e-05
5.27093e-06
2.31306e-08
4.11196e-08
8.09776e-06
2.55583e-05
5.78269e-05
8.06712e-05
8.96263e-05
9.24725e-05
9.20132e-05
8.94864e-05
8.54428e-05
8.00993e-05
7.36969e-05
6.66587e-05
5.98274e-05
5.43166e-05
5.09331e-05
4.99165e-05
5.10091e-05
5.33285e-05
5.51282e-05
5.47689e-05
5.40808e-05
5.19154e-05
4.9059e-05
4.7717e-05
4.58158e-05
4.2247e-05
3.72647e-05
3.28029e-05
3.18558e-05
3.80094e-05
5.05184e-05
3.18757e-05
5.37807e-06
2.37506e-08
4.08107e-08
8.05362e-06
2.53768e-05
5.76319e-05
8.06473e-05
8.95325e-05
9.22002e-05
9.16153e-05
8.90839e-05
8.52085e-05
8.00661e-05
7.36127e-05
6.63346e-05
5.92058e-05
5.32973e-05
4.94954e-05
4.81702e-05
4.91583e-05
5.174e-05
5.41797e-05
5.42903e-05
5.25378e-05
4.9504e-05
4.68136e-05
4.53827e-05
4.37656e-05
4.11766e-05
3.76075e-05
3.47643e-05
3.55487e-05
4.31546e-05
5.34407e-05
3.07661e-05
5.40429e-06
2.41291e-08
4.03875e-08
7.99175e-06
2.52157e-05
5.72129e-05
8.01626e-05
8.91827e-05
9.20308e-05
9.16035e-05
8.91307e-05
8.51337e-05
7.97581e-05
7.31506e-05
6.57169e-05
5.82363e-05
5.19668e-05
4.79902e-05
4.65234e-05
4.74053e-05
5.01379e-05
5.31754e-05
5.4371e-05
5.20609e-05
4.79901e-05
4.48126e-05
4.28344e-05
4.14497e-05
3.97666e-05
3.78776e-05
3.69718e-05
3.95898e-05
4.82024e-05
5.63115e-05
2.99337e-05
5.54526e-06
2.46671e-08
3.9947e-08
7.91891e-06
2.49295e-05
5.66523e-05
7.98117e-05
8.90043e-05
9.19049e-05
9.14636e-05
8.89709e-05
8.50273e-05
7.96975e-05
7.30311e-05
6.55393e-05
5.78939e-05
5.09869e-05
4.61732e-05
4.44507e-05
4.54978e-05
4.8496e-05
5.2242e-05
5.44089e-05
5.26826e-05
4.82441e-05
4.39467e-05
4.09765e-05
3.93555e-05
3.84765e-05
3.80292e-05
3.89928e-05
4.30838e-05
5.14024e-05
5.77037e-05
3.04147e-05
5.76619e-06
2.56612e-08
3.93252e-08
7.82765e-06
2.47641e-05
5.64111e-05
7.96859e-05
8.90393e-05
9.20495e-05
9.16396e-05
8.91535e-05
8.52004e-05
7.99487e-05
7.34494e-05
6.56352e-05
5.74268e-05
5.03725e-05
4.52285e-05
4.25503e-05
4.30927e-05
4.64348e-05
5.09299e-05
5.45964e-05
5.41116e-05
4.97772e-05
4.48382e-05
4.07914e-05
3.83294e-05
3.73751e-05
3.76897e-05
3.97008e-05
4.49e-05
5.37877e-05
5.91615e-05
3.12527e-05
6.03277e-06
2.71666e-08
3.86791e-08
7.73043e-06
2.45513e-05
5.60613e-05
7.94536e-05
8.89738e-05
9.20981e-05
9.17945e-05
8.93831e-05
8.55075e-05
8.03025e-05
7.3788e-05
6.61358e-05
5.77974e-05
4.99327e-05
4.40708e-05
4.10361e-05
4.09331e-05
4.37099e-05
4.87122e-05
5.4083e-05
5.54808e-05
5.20034e-05
4.69441e-05
4.2057e-05
3.87081e-05
3.71312e-05
3.72882e-05
3.95055e-05
4.5057e-05
5.43564e-05
6.02184e-05
3.23467e-05
6.27006e-06
2.86605e-08
3.77052e-08
7.60043e-06
2.434e-05
5.58312e-05
7.93578e-05
8.90566e-05
9.23456e-05
9.22177e-05
9.00013e-05
8.63218e-05
8.12715e-05
7.48024e-05
6.70798e-05
5.86506e-05
5.0312e-05
4.35536e-05
3.95315e-05
3.87654e-05
4.1226e-05
4.62906e-05
5.28776e-05
5.60908e-05
5.38489e-05
4.94e-05
4.40253e-05
3.96173e-05
3.72002e-05
3.68772e-05
3.90365e-05
4.48733e-05
5.47447e-05
6.12896e-05
3.33224e-05
6.4944e-06
3.01145e-08
3.69237e-08
7.48088e-06
2.42369e-05
5.57208e-05
7.93068e-05
8.92113e-05
9.277e-05
9.28738e-05
9.0815e-05
8.7217e-05
8.22351e-05
7.58796e-05
6.81397e-05
5.94069e-05
5.06878e-05
4.32942e-05
3.84923e-05
3.69565e-05
3.89249e-05
4.3924e-05
5.12506e-05
5.55342e-05
5.43774e-05
5.12836e-05
4.63739e-05
4.14769e-05
3.81634e-05
3.7173e-05
3.90545e-05
4.48952e-05
5.50135e-05
6.20561e-05
3.42823e-05
6.68766e-06
3.13376e-08
3.61718e-08
7.36248e-06
2.41298e-05
5.55745e-05
7.91961e-05
8.93665e-05
9.32657e-05
9.3674e-05
9.18516e-05
8.84214e-05
8.35507e-05
7.71916e-05
6.94961e-05
6.06463e-05
5.13793e-05
4.32063e-05
3.76767e-05
3.55078e-05
3.69201e-05
4.2483e-05
4.92372e-05
5.28002e-05
5.43613e-05
5.31481e-05
4.89519e-05
4.38367e-05
3.98207e-05
3.80748e-05
3.93819e-05
4.49171e-05
5.51919e-05
6.30974e-05
3.52247e-05
6.86001e-06
3.23935e-08
3.54527e-08
7.2845e-06
2.41745e-05
5.53719e-05
7.88943e-05
8.94252e-05
9.37447e-05
9.45449e-05
9.30004e-05
8.97319e-05
8.4926e-05
7.85696e-05
7.06968e-05
6.15872e-05
5.20582e-05
4.33398e-05
3.69016e-05
3.41523e-05
3.52278e-05
4.01821e-05
4.61638e-05
5.06595e-05
5.40541e-05
5.41543e-05
5.09076e-05
4.5992e-05
4.1528e-05
3.91434e-05
4.0109e-05
4.59648e-05
5.72072e-05
6.49989e-05
3.49499e-05
6.97658e-06
3.32497e-08
3.47765e-08
7.23311e-06
2.42367e-05
5.51251e-05
7.85381e-05
8.94043e-05
9.40998e-05
9.51858e-05
9.37789e-05
9.05316e-05
8.57149e-05
7.94529e-05
7.18773e-05
6.30871e-05
5.34666e-05
4.41058e-05
3.68103e-05
3.28811e-05
3.32158e-05
3.69946e-05
4.26786e-05
4.85119e-05
5.25518e-05
5.34144e-05
5.11841e-05
4.70744e-05
4.29828e-05
4.07641e-05
4.20984e-05
4.87088e-05
6.02967e-05
6.61392e-05
3.51344e-05
7.04316e-06
3.38377e-08
3.39325e-08
7.13331e-06
2.4032e-05
5.46162e-05
7.8167e-05
8.93559e-05
9.43155e-05
9.55576e-05
9.4235e-05
9.10112e-05
8.62542e-05
8.02268e-05
7.3184e-05
6.51367e-05
5.6034e-05
4.63926e-05
3.77327e-05
3.21048e-05
3.08408e-05
3.33001e-05
3.81078e-05
4.44178e-05
4.94783e-05
5.14684e-05
5.03241e-05
4.74585e-05
4.44102e-05
4.29343e-05
4.487e-05
5.18122e-05
6.26672e-05
6.70641e-05
3.45642e-05
7.12796e-06
3.43734e-08
3.3215e-08
7.04867e-06
2.37301e-05
5.38154e-05
7.76135e-05
8.92391e-05
9.4515e-05
9.5948e-05
9.46814e-05
9.14212e-05
8.66314e-05
8.07269e-05
7.41429e-05
6.69407e-05
5.88117e-05
4.97215e-05
4.06023e-05
3.33522e-05
3.00919e-05
3.03146e-05
3.38174e-05
4.00425e-05
4.59081e-05
4.9062e-05
4.92576e-05
4.75137e-05
4.55751e-05
4.50323e-05
4.75975e-05
5.47694e-05
6.52343e-05
6.8052e-05
3.47728e-05
7.29713e-06
3.50808e-08
3.24126e-08
6.95277e-06
2.3295e-05
5.27635e-05
7.68787e-05
8.89986e-05
9.45644e-05
9.61165e-05
9.48035e-05
9.14451e-05
8.65547e-05
8.07946e-05
7.47789e-05
6.8662e-05
6.19082e-05
5.38549e-05
4.48498e-05
3.63171e-05
3.08703e-05
2.86464e-05
3.00997e-05
3.54107e-05
4.15869e-05
4.60598e-05
4.75983e-05
4.715e-05
4.63374e-05
4.68871e-05
5.04621e-05
5.81618e-05
6.79145e-05
6.91288e-05
3.50107e-05
7.45611e-06
3.57751e-08
3.17659e-08
6.88094e-06
2.28401e-05
5.17911e-05
7.62648e-05
8.87526e-05
9.44561e-05
9.59482e-05
9.44319e-05
9.08367e-05
8.5751e-05
8.0065e-05
7.46173e-05
6.96981e-05
6.46938e-05
5.83667e-05
4.99851e-05
4.1049e-05
3.34872e-05
2.87353e-05
2.78239e-05
3.10474e-05
3.69784e-05
4.25274e-05
4.58132e-05
4.67993e-05
4.70889e-05
4.85183e-05
5.28322e-05
6.08275e-05
6.96765e-05
6.98263e-05
3.53666e-05
7.59727e-06
3.64757e-08
3.11319e-08
6.78496e-06
2.22054e-05
5.0918e-05
7.58486e-05
8.84429e-05
9.39844e-05
9.51646e-05
9.33925e-05
8.95345e-05
8.41648e-05
7.84116e-05
7.33868e-05
6.95164e-05
6.62942e-05
6.24394e-05
5.62813e-05
4.73136e-05
3.79042e-05
3.06817e-05
2.75281e-05
2.85361e-05
3.26549e-05
3.80632e-05
4.26541e-05
4.54129e-05
4.71931e-05
4.95433e-05
5.42053e-05
6.21324e-05
7.07561e-05
7.01658e-05
3.56075e-05
7.74504e-06
3.72984e-08
3.0749e-08
6.68851e-06
2.19503e-05
5.04985e-05
7.5124e-05
8.73975e-05
9.27211e-05
9.35813e-05
9.12255e-05
8.63976e-05
8.0677e-05
7.49374e-05
7.05136e-05
6.7897e-05
6.64536e-05
6.47812e-05
6.11702e-05
5.43994e-05
4.47943e-05
3.5297e-05
2.97063e-05
2.7985e-05
2.96797e-05
3.40826e-05
3.85859e-05
4.25713e-05
4.57831e-05
4.96172e-05
5.56394e-05
6.42274e-05
7.20077e-05
7.01765e-05
3.58469e-05
7.86234e-06
3.82641e-08
3.05341e-08
6.55901e-06
2.13748e-05
4.98075e-05
7.48459e-05
8.68667e-05
9.16954e-05
9.16529e-05
8.84548e-05
8.3425e-05
7.71291e-05
7.13106e-05
6.76211e-05
6.63746e-05
6.68122e-05
6.72854e-05
6.59285e-05
6.11821e-05