/*--------------------------------*- C++ -*----------------------------------*\
  =========                 |
  \\      /  F ield         | OpenFOAM: The Open Source CFD Toolbox
   \\    /   O peration     | Website:  https://openfoam.org
    \\  /    A nd           | Version:  11
     \\/     M anipulation  |
\*---------------------------------------------------------------------------*/
FoamFile
{
    format      ascii;
    class       volScalarField;
    location    "700";
    object      k;
}
// * * * * * * * * * * * * * * * * * * * * * * * * * * * * * * * * * * * * * //

dimensions      [0 2 -2 0 0 0 0];

internalField   nonuniform List<scalar> 
78750
(
7.89598e-06
0.000174618
0.000451562
0.000519571
0.000554127
0.000585105
0.000618789
0.000652038
0.000682059
0.000708198
0.000730417
0.000749193
0.000764653
0.000776482
0.000785246
0.000791217
0.000795033
0.000796659
0.000796812
0.000795513
0.000795298
0.00079689
0.000796831
0.000798274
0.000801989
0.000805206
0.000808314
0.000813198
0.000821991
0.000837681
0.000865044
0.0009034
0.000890943
0.000537423
3.40261e-05
2.61403e-06
7.45062e-05
0.000318791
0.000355706
0.000413371
0.000472681
0.000524561
0.000567116
0.0006014
0.000628728
0.000651284
0.000668469
0.000680203
0.000687606
0.00069101
0.000691062
0.000689031
0.000684759
0.000678382
0.000669475
0.000658677
0.000644202
0.000627709
0.000610673
0.000595014
0.000581494
0.000569734
0.000562853
0.000564035
0.000570257
0.000594966
0.000633319
0.000623416
0.000351202
1.82948e-05
2.20254e-06
6.49725e-05
0.000326327
0.000419042
0.000524425
0.000609644
0.000671807
0.000717339
0.000750334
0.000772733
0.00078476
0.000789271
0.00078882
0.000783789
0.00077464
0.000761801
0.000745747
0.00072673
0.000705005
0.000682355
0.000659685
0.000637171
0.000614449
0.000592073
0.000570944
0.000550531
0.000531593
0.000516397
0.000505459
0.000501045
0.000504349
0.000512112
0.000486668
0.000207293
8.95187e-06
3.05938e-06
8.94969e-05
0.000371184
0.000513684
0.000615699
0.00068099
0.000724532
0.00075477
0.0007756
0.000789239
0.000797098
0.000799752
0.000798207
0.000791843
0.000781512
0.000767337
0.000749518
0.000728589
0.000705197
0.00067976
0.000651795
0.000621864
0.000591788
0.000562886
0.000536081
0.00051061
0.000487814
0.000469502
0.000456033
0.0004485
0.000446839
0.000439056
0.000375117
0.000131629
5.14779e-06
4.17957e-06
0.000119505
0.000388805
0.000569185
0.000674517
0.000740615
0.000786503
0.000819657
0.000842899
0.000857588
0.000864543
0.000864492
0.000859322
0.000847393
0.000829812
0.000807462
0.000781269
0.000751837
0.000719743
0.000685975
0.000651723
0.000617209
0.000583153
0.000550601
0.000520064
0.000490942
0.000464749
0.000443322
0.000426583
0.000415223
0.000409286
0.000398722
0.000344405
0.00011006
4.17054e-06
5.29783e-06
0.000150051
0.000451406
0.000623246
0.000718099
0.000777353
0.000818374
0.000847079
0.000865996
0.000876599
0.000879868
0.000877143
0.000867984
0.000853536
0.000834366
0.000810959
0.000783821
0.000753515
0.00072055
0.000685757
0.000649937
0.000614057
0.000578757
0.000544437
0.000511162
0.000478675
0.000449257
0.00042509
0.000405593
0.000391436
0.000383673
0.000376707
0.000358143
9.85591e-05
3.63566e-06
6.2979e-06
0.000176953
0.000487678
0.000662814
0.000759595
0.000820802
0.000863768
0.000894176
0.000914366
0.000925629
0.000928824
0.000925367
0.000914805
0.000898126
0.000875932
0.00084886
0.000817587
0.000782875
0.000745582
0.000706648
0.000666898
0.000626833
0.000587263
0.000549169
0.000512976
0.000478323
0.000447018
0.000420562
0.000397852
0.000379027
0.000365502
0.000358694
0.000361158
0.000100224
3.67187e-06
7.01246e-06
0.000195812
0.000521278
0.000694991
0.000788981
0.000848221
0.000889404
0.000917878
0.000935935
0.000944874
0.000945608
0.000939743
0.000926626
0.000907594
0.000883448
0.000854881
0.000822573
0.000787194
0.000749308
0.000709605
0.000668886
0.000627979
0.000587722
0.000548537
0.000510426
0.000473987
0.000441856
0.000414922
0.000391583
0.000372612
0.000361803
0.00035684
0.000312313
9.31984e-05
3.396e-06
8.00724e-06
0.000221918
0.000554326
0.00073027
0.000825658
0.000886343
0.000928936
0.000958595
0.000977504
0.000986872
0.000987569
0.000981129
0.000967034
0.000946624
0.000920708
0.000889996
0.000855307
0.000817562
0.000777651
0.000736336
0.000694363
0.000652363
0.000610626
0.000569057
0.000527756
0.000488036
0.000452404
0.000421807
0.000395029
0.000374077
0.000363633
0.000361722
0.000339079
9.02297e-05
3.27793e-06
8.5288e-06
0.000235389
0.000576983
0.000753535
0.000848671
0.00090916
0.00095139
0.000980437
0.000998476
0.00100674
0.00100625
0.000998034
0.000982579
0.000960858
0.000933647
0.000901787
0.000866189
0.000827832
0.000787588
0.000746228
0.000704503
0.000662978
0.00062191
0.000580976
0.000539499
0.000499275
0.000462862
0.000429812
0.00039979
0.000376397
0.000363457
0.000358118
0.000346718
9.33157e-05
3.36532e-06
9.56861e-06
0.000262103
0.00060894
0.000787053
0.000883289
0.000944995
0.000988376
0.00101835
0.00103702
0.00104558
0.001045
0.00103623
0.00101969
0.000996492
0.00096754
0.000933747
0.000896098
0.000855611
0.000813204
0.000769863
0.000726657
0.000684341
0.000643152
0.000602631
0.000561873
0.000522088
0.000484775
0.000448455
0.000414401
0.00038468
0.000364685
0.000356949
0.00035096
9.55054e-05
3.41951e-06
1.00414e-05
0.000274059
0.000627235
0.000807101
0.000904203
0.000966463
0.0010101
0.00104006
0.00105844
0.00106644
0.00106517
0.00105529
0.00103782
0.00101367
0.000983761
0.000949027
0.000910471
0.000869191
0.000826195
0.000782561
0.000739293
0.000696915
0.000655629
0.00061512
0.000574801
0.000535949
0.000499492
0.000463296
0.000427318
0.00039585
0.00037196
0.000357466
0.000345907
9.41466e-05
3.33886e-06
1.11964e-05
0.00030315
0.000660133
0.00084066
0.000938343
0.00100141
0.00104582
0.00107635
0.00109504
0.00110304
0.00110145
0.00109085
0.00107216
0.00104636
0.00101445
0.000977504
0.000936788
0.000893621
0.000849106
0.000804214
0.000759817
0.000716446
0.000674201
0.000632531
0.000590953
0.000550899
0.000512909
0.000474549
0.000435694
0.000402433
0.000378369
0.000362069
0.000341635
9.37232e-05
3.37e-06
1.173e-05
0.000316342
0.000678019
0.000860178
0.000958863
0.00102268
0.00106757
0.00109832
0.00111698
0.00112468
0.00112253
0.00111112
0.00109143
0.00106452
0.0010315
0.000993575
0.000952068
0.000908356
0.00086357
0.000818776
0.000775004
0.000732767
0.000691758
0.000651071
0.000611365
0.000574142
0.000537249
0.000497452
0.000454829
0.000413549
0.000383485
0.000364287
0.000341646
9.60003e-05
3.51616e-06
1.2944e-05
0.000346193
0.000710513
0.000892595
0.000991521
0.00105595
0.00110148
0.00113275
0.00115171
0.00115946
0.00115708
0.0011451
0.00112441
0.00109588
0.00106073
0.0010205
0.000976662
0.000930761
0.000884104
0.00083787
0.000793162
0.000750609
0.000710027
0.000670778
0.000633605
0.000599457
0.000565851
0.000529553
0.000489361
0.000445999
0.000405093
0.000376391
0.000348047
9.81505e-05
3.53277e-06
1.35115e-05
0.00035992
0.000728041
0.000911288
0.00101117
0.0010765
0.0011228
0.00115465
0.001174
0.00118192
0.00117947
0.00116724
0.00114611
0.00111695
0.0010808
0.00103903
0.000993457
0.000945702
0.000897342
0.000849754
0.000804003
0.000760431
0.000719041
0.000679568
0.000642869
0.000609081
0.000575962
0.00054173
0.000505928
0.000467009
0.000427055
0.000389257
0.000343191
9.85446e-05
3.49939e-06
1.46808e-05
0.000388156
0.000757832
0.000940809
0.00104104
0.00110718
0.00115437
0.00118705
0.00120713
0.00121562
0.00121356
0.00120159
0.00118049
0.00115102
0.00111404
0.00107066
0.00102233
0.000971109
0.000919376
0.000868948
0.000821352
0.000776776
0.000734482
0.000693525
0.000654201
0.000616547
0.000579028
0.000542212
0.000505428
0.000467759
0.000430813
0.000389742
0.000328758
9.83965e-05
3.51929e-06
1.5159e-05
0.000399521
0.000772721
0.000957271
0.00105892
0.00112645
0.00117493
0.00120879
0.00122992
0.00123936
0.00123807
0.00122687
0.00120642
0.0011775
0.00114095
0.00109777
0.00104918
0.000996719
0.000942256
0.000888843
0.000839126
0.000794451
0.000754435
0.000717577
0.000681718
0.000645637
0.000605922
0.000560683
0.000513587
0.00047052
0.000431512
0.000390945
0.000328878
9.97845e-05
3.66706e-06
1.61908e-05
0.000423946
0.000798685
0.000983537
0.00108602
0.00115476
0.00120455
0.00123972
0.00126214
0.00127281
0.00127266
0.00126274
0.00124325
0.00121507
0.00117889
0.00113555
0.00108613
0.00103193
0.000974402
0.000915595
0.000858833
0.000808566
0.000765898
0.00073033
0.00070113
0.000673883
0.000644079
0.000607632
0.00056248
0.000509381
0.000455072
0.000402819
0.000337458
0.000103452
3.73577e-06
1.6619e-05
0.000433975
0.000812016
0.00099908
0.00110345
0.00117392
0.00122534
0.00126209
0.00128606
0.00129823
0.00129952
0.00129088
0.00127262
0.00124552
0.00121019
0.00116741
0.00111811
0.00106345
0.00100463
0.000943237
0.000881526
0.000822427
0.00077059
0.000729311
0.000698134
0.000673205
0.000649182
0.000622533
0.000589152
0.000543792
0.000485955
0.000419098
0.000334618
0.000104973
3.75166e-06
1.75261e-05
0.00045524
0.000834965
0.0010232
0.00112891
0.00120086
0.00125382
0.00129219
0.00131783
0.00133174
0.00133479
0.0013278
0.0013112
0.00128557
0.00125139
0.0012093
0.00116011
0.00110487
0.0010447
0.00098107
0.00091585
0.000850947
0.000788776
0.000733531
0.000691879
0.000661748
0.000637778
0.000614285
0.000586951
0.000550775
0.000499949
0.000429543
0.00033459
0.000108117
3.86392e-06
1.77727e-05
0.000460972
0.000845436
0.00103701
0.00114522
0.0012193
0.0012743
0.00131474
0.00134254
0.00135868
0.00136401
0.00135923
0.00134489
0.0013214
0.0012892
0.00124879
0.00120089
0.00114641
0.00108642
0.00102237
0.000956185
0.000889686
0.000824427
0.000762636
0.000709739
0.000670512
0.000640195
0.000614712
0.0005878
0.000552845
0.000505123
0.0004371
0.000340091
0.000113136
4.17218e-06
1.84152e-05
0.000474286
0.000862943
0.00105718
0.00116748
0.00124347
0.0013005
0.00134315
0.00137337
0.00139213
0.00140017
0.00139823
0.00138673
0.00136599
0.00133627
0.00129791
0.00125138
0.00119744
0.00113699
0.00107146
0.00100285
0.000933319
0.000864644
0.000798717
0.000740537
0.00069498
0.000663067
0.00063532
0.000604832
0.000567907
0.000518823
0.000450632
0.00035416
0.000120216
4.38255e-06
1.87742e-05
0.00048069
0.000872661
0.00106974
0.00118266
0.00126105
0.00132044
0.00136558
0.00139847
0.00142011
0.0014312
0.00143238
0.00142409
0.00140653
0.00137985
0.00134421
0.00129989
0.00124738
0.00118737
0.00112099
0.00104989
0.000976003
0.000900889
0.000826565
0.000759056
0.000704699
0.000666579
0.000645514
0.000626495
0.000596146
0.000542807
0.00046454
0.000356126
0.000124508
4.49007e-06
1.93375e-05
0.000491602
0.000886869
0.00108754
0.00120311
0.00128366
0.00134527
0.00139285
0.00142848
0.00145318
0.0014676
0.00147231
0.00146777
0.00145409
0.00143126
0.00139927
0.00135819
0.0013083
0.00125013
0.0011846
0.00111308
0.00103687
0.00095629
0.000871733
0.000789104
0.000718691
0.000668139
0.000638799
0.000621232
0.000599937
0.000553559
0.000474042
0.000361825
0.000129058
4.64201e-06
1.95857e-05
0.000497763
0.000894697
0.00109947
0.00121833
0.00130151
0.00136559
0.00141577
0.00145421
0.001482
0.00149973
0.00150803
0.00150729
0.00149764
0.00147891
0.00145095
0.00141365
0.00136717
0.00131195
0.00124898
0.00117971
0.00110546
0.001026
0.00093964
0.000847616
0.000759334
0.000687554
0.000641534
0.000619472
0.000598658
0.000557425
0.000481695
0.000363985
0.000135684
5.10511e-06
2.00394e-05
0.000510941
0.000908943
0.00111787
0.00123983
0.00132519
0.0013913
0.00144366
0.00148456
0.00151513
0.00153595
0.00154768
0.00155068
0.00154525
0.00153078
0.00150704
0.00147368
0.00143056
0.00137802
0.00131698
0.00124889
0.0011754
0.00109768
0.00101458
0.00092337
0.00082914
0.000743664
0.000674121
0.000628386
0.000600825
0.000564508
0.000493817
0.00037566
0.000143013
5.41456e-06
2.0613e-05
0.000527206
0.00092313
0.00113504
0.00125989
0.00134739
0.00141547
0.00146982
0.00151285
0.00154581
0.00156931
0.00158409
0.00159051
0.00158873
0.0015783
0.0015585
0.00152866
0.00148835
0.00143766
0.00137733
0.00130892
0.00123425
0.00115442
0.00106837
0.000974141
0.000877358
0.000788015
0.000711207
0.000654045
0.000614591
0.000573375
0.000500949
0.000380573
0.000148897
5.44905e-06
2.20306e-05
0.00055904
0.00094854
0.00116075
0.00128729
0.00137652
0.00144608
0.00150176
0.00154613
0.00158062
0.00160605
0.00162328
0.0016328
0.0016344
0.00162838
0.00161256
0.00158663
0.00154985
0.00150195
0.00144329
0.00137491
0.00129824
0.00121401
0.00112049
0.0010154
0.000905766
0.000805629
0.000724599
0.000668469
0.000628222
0.00058316
0.000507103
0.000383499
0.000151814
5.53788e-06
2.38336e-05
0.000598684
0.000976144
0.0011858
0.00131237
0.00140241
0.00147318
0.00153029
0.00157626
0.00161258
0.00164014
0.00166006
0.00167307
0.00167918
0.00167788
0.00166853
0.00164925
0.00161801
0.00157459
0.00151937
0.00145289
0.00137658
0.00129093
0.00119362
0.00108148
0.000960068
0.000843198
0.000743632
0.000676416
0.000634214
0.000589509
0.000513223
0.000390552
0.000158328
6.00054e-06
2.60017e-05
0.000645338
0.00100937
0.00121527
0.00134074
0.0014305
0.00150115
0.00155812
0.00160394
0.00164022
0.00166818
0.00168936
0.001705
0.00171576
0.00172163
0.00172154
0.00171408
0.00169384
0.00165908
0.00160898
0.00154416
0.00146578
0.00137551
0.00127516
0.0011616
0.00103963
0.000918243
0.000802907
0.000712873
0.000655033
0.000606089
0.000531537
0.000409774
0.000169251
6.53258e-06
2.7957e-05
0.000686756
0.00104045
0.00124115
0.0013641
0.00145283
0.00152297
0.00157953
0.00162486
0.0016605
0.0016878
0.00170891
0.00172495
0.00173745
0.00174687
0.00175204
0.00175038
0.00173791
0.0017122
0.00167224
0.00161766
0.00154736
0.00146009
0.00135504
0.00123244
0.00110267
0.000978478
0.000860607
0.000760275
0.000687403
0.000628562
0.000548532
0.000422312
0.000180296
6.69079e-06
2.97072e-05
0.000724195
0.00107165
0.00126606
0.00138513
0.0014716
0.00154007
0.00159501
0.00163874
0.00167269
0.00169797
0.00171641
0.00173097
0.00174457
0.00175913
0.0017725
0.00177951
0.00177638
0.00175889
0.00172582
0.00167625
0.00160829
0.00152037
0.00141235
0.00128454
0.00114174
0.000998096
0.000875349
0.000779999
0.000706897
0.00064203
0.000556422
0.000425788
0.000182769
6.77049e-06
3.1198e-05
0.000754832
0.00109408
0.00128151
0.00139672
0.00148121
0.00154835
0.00160166
0.00164326
0.00167503
0.00169905
0.0017169
0.00173126
0.0017449
0.00176009
0.00177718
0.0017945
0.00180449
0.00179886
0.00177619
0.00173515
0.00167313
0.00158876
0.0014813
0.0013503
0.0011965
0.00102757
0.000879884
0.000783145
0.000717985
0.000653694
0.000566441
0.000434457
0.000193221
7.14743e-06
3.23207e-05
0.000777696
0.00111022
0.00129168
0.00140327
0.00148528
0.00155031
0.00160268
0.00164356
0.00167344
0.00169377
0.00170774
0.00171898
0.0017316
0.00174923
0.00177202
0.00179529
0.00181375
0.00182286
0.00181596
0.00178954
0.00174336
0.00167551
0.00158383
0.00146594
0.00131771
0.00113504
0.000942164
0.000802783
0.0007256
0.000665232
0.000579523
0.000448333
0.000204254
7.68678e-06
3.29037e-05
0.000789435
0.0011175
0.00129546
0.00140494
0.0014858
0.0015498
0.00160013
0.00163803
0.00166449
0.00168202
0.00169337
0.00170177
0.0017113
0.00172617
0.0017501
0.00178037
0.00180853
0.00182519
0.00182712
0.00181464
0.00178285
0.00173201
0.00166027
0.00156453
0.00143885
0.00127336
0.0010743
0.000887607
0.000764206
0.000684592
0.000595445
0.000463876
0.000219618
8.20292e-06
3.31442e-05
0.000794197
0.00112121
0.0012973
0.00140521
0.00148461
0.00154696
0.00159601
0.00163292
0.00165877
0.00167508
0.00168395
0.00168869
0.00169331
0.00170275
0.0017214
0.00175127
0.00178563
0.00181255
0.00182396
0.00181769
0.00179298
0.0017497
0.00168726
0.00160314
0.00149163
0.00134411
0.00116163
0.000970182
0.000817774
0.000714508
0.000614955
0.000477653
0.000227623
8.52004e-06
3.31807e-05
0.000794622
0.00112365
0.00129926
0.00140621
0.00148468
0.00154604
0.00159308
0.00162776
0.00165062
0.00166277
0.00166656
0.00166518
0.00166422
0.0016682
0.00168403
0.00171352
0.00175198
0.00178775
0.00180896
0.00181075
0.00179238
0.0017527
0.0016924
0.00160898
0.00149709
0.00135349
0.00118431
0.00100879
0.00085685
0.000741528
0.000632758
0.000488932
0.000234934
8.76265e-06
3.34763e-05
0.000794207
0.00112515
0.00130185
0.00140797
0.00148519
0.00154567
0.00159273
0.00162698
0.00164871
0.00165854
0.00165867
0.00165097
0.00163837
0.00162944
0.00163482
0.00166069
0.00170242
0.00174762
0.00178231
0.00179693
0.00178871
0.00175704
0.00170153
0.00161955
0.00150652
0.00136115
0.00119458
0.00102962
0.000885829
0.000766889
0.000652125
0.00050554
0.000249709
9.343e-06
3.36406e-05
0.000790212
0.00112389
0.00130255
0.00141067
0.00148828
0.00154794
0.00159392
0.00162749
0.00164911
0.00165884
0.0016589
0.00165066
0.00163624
0.0016188
0.00160255
0.00160001
0.00162927
0.00167809
0.00172691
0.00176015
0.00176998
0.00175511
0.00171357
0.00164265
0.00153726
0.00139591
0.00122808
0.00105997
0.00091574
0.00079519
0.000677884
0.00053003
0.000268437
1.03012e-05
3.3499e-05
0.000785698
0.00112052
0.00130197
0.0014121
0.00149235
0.00155487
0.00160295
0.00163806
0.00166107
0.00167308
0.00167447
0.00166604
0.00164884
0.00162532
0.00160047
0.00158059
0.00157173
0.001596
0.00164266
0.00168901
0.00171862
0.00172418
0.00170453
0.00165438
0.00157139
0.00144934
0.00129113
0.00111689
0.00095856
0.00082718
0.000703121
0.000551442
0.000283867
1.10148e-05
3.32935e-05
0.000783068
0.00111805
0.00130172
0.00141394
0.00149561
0.00155987
0.00161047
0.00164862
0.00167456
0.00168874
0.00169234
0.00168649
0.00167155
0.0016477
0.00161626
0.0015824
0.00155638
0.00154525
0.00156294
0.001607
0.00164746
0.0016689
0.00166653
0.00163728
0.0015736
0.0014767
0.00134263
0.00117764
0.00100961
0.000863986
0.000731237
0.000574714
0.000302919
1.15618e-05
3.31511e-05
0.00078144
0.0011156
0.00130232
0.00141718
0.00150076
0.00156671
0.00161904
0.00165942
0.00168867
0.00170733
0.00171652
0.00171714
0.00170893
0.00169087
0.00166191
0.00162248
0.00157745
0.00154063
0.00152534
0.00153393
0.00156527
0.00159297
0.00160358
0.0015919
0.00155166
0.00147419
0.00135749
0.00121211
0.00104983
0.000896263
0.000754778
0.00059139
0.000313276
1.19107e-05
3.26937e-05
0.000781418
0.0011153
0.00130451
0.0014216
0.00150691
0.0015744
0.00162833
0.00167052
0.00170187
0.00172287
0.00173527
0.00174066
0.00173976
0.00173106
0.00171222
0.00168133
0.00163793
0.00158552
0.00153607
0.00150864
0.00150881
0.00152323
0.00153507
0.0015309
0.00150146
0.00144139
0.0013483
0.00122111
0.0010733
0.000923907
0.000780363
0.000614269
0.000333548
1.31132e-05
3.23812e-05
0.00078224
0.00111743
0.00131095
0.00143025
0.00151649
0.00158472
0.00163963
0.00168311
0.00171629
0.00173979
0.00175562
0.00176509
0.00176841
0.00176536
0.00175365
0.00173185
0.00169868
0.00165369
0.00159952
0.00154659
0.00151331
0.00150338
0.00150432
0.00150133
0.00148052
0.00143179
0.00135063
0.00123633
0.00109915
0.000954689
0.00081053
0.000643552
0.000351889
1.43074e-05
3.2915e-05
0.000793738
0.0011273
0.00132059
0.00144084
0.00152848
0.00159784
0.00165348
0.00169761
0.00173161
0.00175633
0.00177331
0.00178427
0.00179022
0.0017904
0.00178467
0.00177004
0.00174431
0.00170599
0.0016563
0.00160072
0.00155104
0.00151932
0.00150517
0.00149625
0.00147961
0.00144249
0.00137531
0.00127133
0.00113754
0.000991633
0.000842637
0.0006706
0.000372469
1.4941e-05
3.34513e-05
0.000804324
0.00113648
0.00132924
0.00144961
0.00153757
0.00160726
0.00166309
0.00170717
0.00174094
0.0017657
0.00178288
0.00179531
0.00180525
0.00181475
0.00182265
0.0018237
0.00181226
0.00178331
0.00173625
0.00167504
0.00161231
0.0015618
0.00152686
0.00150685
0.00148959
0.00146133
0.00140699
0.00131434
0.0011839
0.00103257
0.000876112
0.000696357
0.000395593
1.54796e-05
3.42393e-05
0.000819769
0.00114775
0.00133737
0.0014565
0.00154401
0.00161353
0.00166916
0.00171277
0.00174557
0.00176859
0.00178477
0.0017966
0.00180679
0.00181648
0.00182529
0.0018311
0.00183076
0.00181603
0.00178268
0.00173082
0.00166746
0.00160568
0.00155519
0.00152062
0.00149587
0.0014676
0.00142131
0.00134038
0.00121575
0.00106246
0.000902565
0.000716847
0.000410964
1.6137e-05
3.47347e-05
0.000829454
0.00115321
0.0013396
0.00145733
0.00154459
0.00161411
0.00166976
0.00171334
0.00174587
0.00176796
0.00178198
0.00179106
0.00179827
0.00180681
0.00181807
0.00182982
0.00183619
0.00183249
0.00180935
0.0017658
0.00170542
0.00163777
0.00157419
0.00152522
0.00149135
0.00146234
0.00142092
0.00134651
0.00123276
0.00108677
0.000931098
0.000743871
0.000434944
1.70554e-05
3.51356e-05
0.000836923
0.00115584
0.0013403
0.00145655
0.00154281
0.00161164
0.00166647
0.00170874
0.00173945
0.00176003
0.00177291
0.00178085
0.00178706
0.00179485
0.00180648
0.00182142
0.0018353
0.00184069
0.0018326
0.00180103
0.00174734
0.00167754
0.00160295
0.00153799
0.00149119
0.00145062
0.0014063
0.00134212
0.00123807
0.00110269
0.000952546
0.000766609
0.000456582
1.79747e-05
3.51736e-05
0.000837666
0.0011549
0.00133664
0.0014516
0.00153724
0.00160556
0.00166004
0.00170224
0.00173309
0.00175372
0.00176627
0.00177319
0.0017774
0.00178235
0.00179139
0.00180603
0.00182425
0.00184023
0.00184571
0.00183509
0.0017992
0.00173929
0.00166143
0.00157881
0.00150562
0.00145314
0.0014067
0.00134281
0.00124893
0.00112371
0.000981252
0.000801115
0.000492761
1.98317e-05
3.51337e-05
0.000836772
0.00115111
0.00133174
0.00144581
0.00153074
0.00159865
0.00165291
0.00169489
0.00172541
0.0017458
0.00175809
0.0017645
0.00176747
0.00176994
0.00177528
0.00178626
0.00180339
0.00182397
0.00184222
0.0018501
0.00184038
0.00180526
0.00174379
0.00166211
0.00157349
0.00148977
0.00141757
0.00134869
0.00126188
0.00114517
0.00100661
0.000828699
0.000513089
2.1094e-05
3.48003e-05
0.000829856
0.00114543
0.00132628
0.00144052
0.00152565
0.00159358
0.00164761
0.00168907
0.00171877
0.00173807
0.00174914
0.00175442
0.00175651
0.00175811
0.00176171
0.00176923
0.00178171
0.00179885
0.00181842
0.00183595
0.00184393
0.00183508
0.00180235
0.00174331
0.00166371
0.00157331
0.00148067
0.00138772
0.00128705
0.00116772
0.00103089
0.000855214
0.000542615
2.1976e-05
3.45609e-05
0.000824728
0.00114104
0.00132226
0.00143646
0.00152106
0.00158805
0.00164082
0.00168084
0.00170912
0.00172725
0.00173762
0.00174266
0.00174489
0.00174684
0.00175071
0.00175761
0.00176753
0.00178009
0.00179477
0.00181042
0.00182348
0.001827
0.00181376
0.00177982
0.00172213
0.00164295
0.00154801
0.0014417
0.00132512
0.00119663
0.0010582
0.000879849
0.00055797
2.25662e-05
3.42866e-05
0.000818973
0.00113552
0.00131724
0.00143159
0.00151622
0.00158322
0.00163591
0.00167556
0.00170295
0.00171962
0.00172798
0.00173067
0.00173072
0.00173134
0.00173496
0.00174206
0.00175114
0.00176049
0.00176964
0.00177943
0.00178958
0.00179737
0.00179761
0.00177963
0.00173899
0.00167624
0.00158925
0.00148098
0.00135635
0.00122125
0.00107943
0.000896698
0.000568514
2.29401e-05
3.39249e-05
0.000810464
0.00112923
0.00131299
0.0014287
0.00151407
0.00158118
0.00163341
0.00167199
0.00169769
0.00171212
0.00171802
0.00171842
0.00171685
0.00171707
0.00172206
0.00173225
0.00174424
0.00175382
0.00175886
0.0017603
0.00176072
0.00176181
0.00176238
0.00175587
0.00173257
0.00168294
0.00160929
0.00150713
0.00138247
0.00124622
0.00110341
0.000916782
0.000580942
2.34227e-05
3.35543e-05
0.000801934
0.00112224
0.00130809
0.00142518
0.00151147
0.00157932
0.00163204
0.00167056
0.00169548
0.00170782
0.00171062
0.00170722
0.00170168
0.00169882
0.00170313
0.00171631
0.00173432
0.00174961
0.00175685
0.00175505
0.00174728
0.00173715
0.0017281
0.00172054
0.0017072
0.00167616
0.0016147
0.00152476
0.00140715
0.00127335
0.00112989
0.00094098
0.000601248
2.43205e-05
3.30396e-05
0.000790888
0.00111413
0.00130288
0.00142217
0.00151007
0.00157909
0.00163208
0.00167062
0.0016954
0.00170742
0.00170825
0.00170063
0.00168989
0.00168178
0.00168272
0.00169667
0.00172087
0.00174576
0.00176131
0.00176397
0.00175464
0.00173761
0.00171882
0.00169966
0.00167997
0.00165398
0.00160858
0.00153113
0.00142427
0.00129749
0.00115713
0.000968648
0.000626126
2.56941e-05
3.24858e-05
0.000779331
0.00110542
0.00129738
0.00141915
0.00150898
0.00157947
0.00163392
0.0016733
0.00169802
0.00170894
0.00170884
0.00169962
0.00168358
0.00166773
0.0016611
0.00167081
0.00169761
0.00173194
0.00176046
0.00177447
0.00177201
0.00175493
0.00172796
0.00170049
0.00167641
0.00164767
0.00160582
0.00153726
0.00144028
0.00132071
0.00118416
0.000997219
0.000651204
2.71338e-05
3.16623e-05
0.000764822
0.00109517
0.00129118
0.00141614
0.00150882
0.00158166
0.00163827
0.00167958
0.00170571
0.00171686
0.00171474
0.0017022
0.00168334
0.00166122
0.00164687
0.00164934
0.00167341
0.00171256
0.00175185
0.00177868
0.00178748
0.00177828
0.0017531
0.00171872
0.00168213
0.00164889
0.001607
0.00154337
0.00145358
0.00134052
0.00120855
0.00102479
0.000678937
2.84997e-05
3.10018e-05
0.000751357
0.00108671
0.0012863
0.00141393
0.00150889
0.00158402
0.0016428
0.00168611
0.0017139
0.00172596
0.0017235
0.00170831
0.00168366
0.00165583
0.00163235
0.00162749
0.00164777
0.00169103
0.00174003
0.00177905
0.00179998
0.00180086
0.00178307
0.00174936
0.00170733
0.00166279
0.00161539
0.0015541
0.00146877
0.0013605
0.00123213
0.00105078
0.000704492
2.96854e-05
3.0367e-05
0.000737548
0.00107815
0.00128134
0.00141182
0.00150929
0.00158717
0.00164852
0.0016944
0.00172456
0.00173827
0.00173612
0.00171934
0.00169044
0.00165447
0.00161951
0.00160473
0.00162098
0.00166771
0.00172597
0.00177632
0.00180957
0.00182172
0.00181231
0.00178325
0.00174062
0.00169116
0.00163724
0.00157207
0.00148666
0.00137959
0.0012527
0.0010736
0.00073068
3.06828e-05
2.97631e-05
0.000723723
0.00106971
0.00127583
0.00140887
0.00150885
0.00158902
0.00165327
0.00170219
0.00173543
0.00175177
0.00175097
0.00173324
0.00169987
0.00165558
0.00160986
0.0015746
0.00158095
0.00162881
0.00169838
0.00176387
0.00181182
0.00183824
0.00183996
0.0018184
0.00177779
0.00172505
0.00166455
0.00159323
0.0015047
0.00139756
0.00127247
0.00109486
0.000752215
3.15254e-05
2.91945e-05
0.000710861
0.00106021
0.00126849
0.00140373
0.00150607
0.00158912
0.00165674
0.0017096
0.00174733
0.00176824
0.00177114
0.00175514
0.00171998
0.00166811
0.00160801
0.00155846
0.00153657
0.00157523
0.00165136
0.00173396
0.00180006
0.00183846
0.0018539
0.00184564
0.00181261
0.00176074
0.00169574
0.00161794
0.00152485
0.00141632
0.00129043
0.00111085
0.000764997
3.20962e-05
2.84821e-05
0.000692967
0.00104698
0.00125838
0.00139602
0.00150063
0.00158633
0.00165732
0.00171504
0.00175876
0.00178676
0.00179711
0.001788
0.00175717
0.00170432
0.00163365
0.00155883
0.00150902
0.00150509
0.00156823
0.00166126
0.00174879
0.00181319
0.0018455
0.00184766
0.00182849
0.00178553
0.00172204
0.00164118
0.00154463
0.00143401
0.00130682
0.00112522
0.000777741
3.26093e-05
2.78807e-05
0.000677804
0.0010344
0.00124825
0.00138801
0.00149461
0.00158275
0.00165714
0.00171933
0.00176899
0.00180463
0.00182396
0.00182434
0.00180214
0.00175525
0.00168517
0.00160085
0.00152004
0.00147843
0.00149857
0.00158051
0.00167847
0.0017594
0.00181251
0.00183622
0.00182821
0.00179667
0.00174128
0.00166229
0.00156429
0.00145183
0.00132309
0.00114021
0.000792667
3.32944e-05
2.72039e-05
0.000662008
0.00102013
0.0012363
0.00137796
0.00148622
0.00157637
0.00165359
0.00172
0.00177635
0.00182062
0.00185117
0.00186393
0.00185421
0.00181762
0.001753
0.00166587
0.00157013
0.0014898
0.00146176
0.00150248
0.0015957
0.00169212
0.00176345
0.00180411
0.00181473
0.00179534
0.00174864
0.0016757
0.00158133
0.00147066
0.0013419
0.00115746
0.000805835
3.39416e-05
2.66692e-05
0.000650789
0.00100734
0.00122465
0.00136749
0.00147674
0.00156828
0.0016478
0.00171787
0.00177945
0.00183253
0.00187515
0.00190339
0.00191091
0.00189105
0.0018393
0.00175544
0.00165062
0.00154462
0.00146999
0.00146054
0.00151912
0.00161596
0.00170869
0.00177082
0.00179753
0.00179057
0.00175191
0.00168512
0.00159426
0.00148565
0.00135759
0.00117294
0.000819988
3.46327e-05
2.61586e-05
0.000643764
0.000996084
0.00121418
0.00135782
0.00146764
0.00155988
0.00164065
0.00171327
0.00177966
0.0018404
0.00189444
0.00193856
0.00196555
0.00196684
0.00193614
0.0018674
0.00176216
0.00163646
0.00152218
0.00146071
0.00147285
0.00154276
0.00163192
0.00171371
0.00176435
0.00177675
0.00175115
0.00169295
0.00160794
0.00150189
0.00137452
0.00118945
0.000833622
3.54079e-05
2.58321e-05
0.000640106
0.000988038
0.00120583
0.00134922
0.00145891
0.00155117
0.0016323
0.00170617
0.00177556
0.00184224
0.00190777
0.00196746
0.00201414
0.00203806
0.00203118
0.00198687
0.00190072
0.00177278
0.00162199
0.00150426
0.0014651
0.00149375
0.00156998
0.00165205
0.001717
0.00174908
0.00174131
0.00169298
0.00161434
0.00151267
0.0013873
0.00120245
0.000845272
3.62694e-05
2.56758e-05
0.00063721
0.000983806
0.00119841
0.00134047
0.00144912
0.00154054
0.00162111
0.00169505
0.00176638
0.00183788
0.00191186
0.00198793
0.00205311
0.00209827
0.00211402
0.002097
0.00204016
0.00194072
0.00179879
0.0016369
0.00150949
0.00148361
0.00151663
0.00158969
0.00166169
0.00170913
0.00171904
0.0016877
0.00161898
0.00152311
0.00140095
0.00121889
0.00086306
3.80757e-05
2.60825e-05
0.000645333
0.000985377
0.00119726
0.00133573
0.00144142
0.0015302
0.00160839
0.00168055
0.00175163
0.00182729
0.00191177
0.0020013
0.00208916
0.00215358
0.00218676
0.00218485
0.00214799
0.00207187
0.00195635
0.0018094
0.00165775
0.00154124
0.00151963
0.00155601
0.00161695
0.00167047
0.00169491
0.00168012
0.00162515
0.00153851
0.00142183
0.00124272
0.00088447
3.90623e-05
2.61629e-05
0.000646478
0.000985347
0.00119032
0.0013242
0.00142667
0.00151234
0.00158684
0.00165532
0.00172437
0.00180206
0.00189534
0.00200161
0.00210478
0.00219138
0.00224085
0.00225374
0.00223148
0.00217244
0.00207865
0.00195437
0.00180888
0.00167098
0.00158654
0.00157649
0.00161632
0.00165789
0.00168116
0.00167344
0.00162758
0.00154742
0.00143501
0.00125969
0.000909905
3.94027e-05
2.6293e-05
0.000647503
0.000981798
0.00117891
0.00130706
0.00140488
0.00148566
0.00155525
0.0016189
0.0016837
0.00176021
0.00185922
0.00198027
0.00210496
0.0022084
0.00228118
0.00231155
0.00230387
0.00226078
0.00218382
0.00207444
0.00193879
0.00179763
0.00168712
0.00163598
0.00163452
0.00166165
0.00168281
0.00167465
0.00163173
0.00155647
0.00144955
0.00127827
0.000934022
4.03892e-05
2.61596e-05
0.000644431
0.000970891
0.00116211
0.00128554
0.00137956
0.00145693
0.00152206
0.00157903
0.00163483