/*--------------------------------*- C++ -*----------------------------------*\
  =========                 |
  \\      /  F ield         | OpenFOAM: The Open Source CFD Toolbox
   \\    /   O peration     | Website:  https://openfoam.org
    \\  /    A nd           | Version:  11
     \\/     M anipulation  |
\*---------------------------------------------------------------------------*/
FoamFile
{
    format      ascii;
    class       volScalarField;
    location    "700";
    object      nut;
}
// * * * * * * * * * * * * * * * * * * * * * * * * * * * * * * * * * * * * * //

dimensions      [0 2 -1 0 0 0 0];

internalField   nonuniform List<scalar> 
78750
(
7.72913e-09
1.53425e-06
1.87733e-05
2.08114e-05
2.14606e-05
2.24034e-05
2.26495e-05
2.27016e-05
2.28841e-05
2.31747e-05
2.36445e-05
2.40978e-05
2.46072e-05
2.52153e-05
2.58341e-05
2.64853e-05
2.71668e-05
2.79282e-05
2.84384e-05
2.9285e-05
2.87434e-05
2.97808e-05
3.15996e-05
3.07158e-05
3.1126e-05
3.19261e-05
3.2626e-05
3.23901e-05
3.10711e-05
2.96052e-05
2.85538e-05
2.83046e-05
2.53053e-05
4.6715e-06
3.16986e-08
2.56021e-09
6.55646e-07
9.16231e-06
9.39255e-06
1.17566e-05
1.62246e-05
2.21903e-05
2.7634e-05
3.13328e-05
3.34116e-05
3.6094e-05
3.843e-05
3.96133e-05
4.20088e-05
4.38895e-05
4.58969e-05
4.76138e-05
5.14276e-05
5.57143e-05
5.63784e-05
5.60438e-05
5.47483e-05
5.35499e-05
5.15617e-05
5.04255e-05
4.78247e-05
3.60497e-05
3.75352e-05
3.82343e-05
2.99468e-05
2.61943e-05
2.35677e-05
2.00861e-05
3.04356e-06
1.6956e-08
2.15721e-09
5.71696e-07
6.13465e-06
1.0149e-05
1.89596e-05
3.28644e-05
4.44248e-05
5.19064e-05
5.69653e-05
5.98688e-05
6.19306e-05
6.32906e-05
6.45968e-05
6.52272e-05
6.56334e-05
6.57441e-05
6.4694e-05
5.92342e-05
5.57775e-05
5.79146e-05
5.87346e-05
5.62372e-05
5.24118e-05
4.92565e-05
4.55992e-05
3.61601e-05
3.77351e-05
3.84421e-05
2.85575e-05
2.29015e-05
1.93818e-05
1.75118e-05
1.54787e-05
1.78699e-06
8.28171e-09
2.99613e-09
7.87024e-07
7.61801e-06
1.82332e-05
3.56887e-05
5.02212e-05
5.91221e-05
6.48856e-05
6.86306e-05
7.05311e-05
7.12867e-05
7.10307e-05
7.00995e-05
6.85373e-05
6.64291e-05
6.39012e-05
6.12025e-05
5.82832e-05
5.41739e-05
4.89081e-05
4.46193e-05
4.14214e-05
3.90691e-05
3.8048e-05
3.46884e-05
2.79269e-05
2.92322e-05
2.94354e-05
2.25814e-05
1.91028e-05
1.55243e-05
1.28482e-05
1.09143e-05
1.12942e-06
4.75615e-09
4.09298e-09
1.05067e-06
7.95087e-06
2.14281e-05
4.06563e-05
5.51483e-05
6.26964e-05
6.67083e-05
6.85967e-05
6.93176e-05
6.88446e-05
6.74809e-05
6.54161e-05
6.26411e-05
5.93643e-05
5.57761e-05
5.20341e-05
4.81589e-05
4.5221e-05
4.32117e-05
4.10956e-05
3.87258e-05
3.69219e-05
3.58337e-05
3.26119e-05
2.72169e-05
2.8435e-05
2.78374e-05
2.09807e-05
1.64398e-05
1.27966e-05
1.05264e-05
9.39927e-06
9.41409e-07
3.85032e-09
5.18778e-09
1.31884e-06
1.0212e-05
2.82062e-05
5.0196e-05
6.33813e-05
6.99453e-05
7.32347e-05
7.41778e-05
7.37315e-05
7.22263e-05
6.994e-05
6.69342e-05
6.34265e-05
5.96058e-05
5.56354e-05
5.16638e-05
4.75377e-05
4.3474e-05
4.04621e-05
3.8437e-05
3.66533e-05
3.49552e-05
3.31285e-05
2.98809e-05
2.59483e-05
2.73884e-05
2.6655e-05
2.00069e-05
1.51093e-05
1.10963e-05
9.06874e-06
9.51669e-06
8.40761e-07
3.35454e-09
6.16692e-09
1.55513e-06
1.06912e-05
2.9687e-05
5.21799e-05
6.44551e-05
6.99477e-05
7.22164e-05
7.23564e-05
7.12076e-05
6.89996e-05
6.61031e-05
6.26391e-05
5.8813e-05
5.48685e-05
5.10382e-05
4.7442e-05
4.44143e-05
4.19811e-05
4.0044e-05
3.80686e-05
3.60699e-05
3.43369e-05
3.26618e-05
2.98983e-05
2.65049e-05
2.77189e-05
2.61136e-05
1.90265e-05
1.3738e-05
9.93556e-06
8.20507e-06
9.35973e-06
8.5357e-07
3.38683e-09
6.86641e-09
1.72059e-06
1.20068e-05
3.34492e-05
5.66539e-05
6.84714e-05
7.36116e-05
7.54587e-05
7.51608e-05
7.34702e-05
7.07706e-05
6.74433e-05
6.35986e-05
5.94316e-05
5.52099e-05
5.11954e-05
4.74928e-05
4.40799e-05
4.09906e-05
3.82435e-05
3.61064e-05
3.45107e-05
3.29227e-05
3.09602e-05
2.87418e-05
2.70507e-05
2.90054e-05
2.65158e-05
1.86444e-05
1.29533e-05
9.10016e-06
7.67456e-06
8.1785e-06
7.92306e-07
3.13123e-09
7.84033e-09
1.94985e-06
1.23794e-05
3.44059e-05
5.75923e-05
6.87417e-05
7.3305e-05
7.45545e-05
7.37995e-05
7.17661e-05
6.88408e-05
6.53143e-05
6.13466e-05
5.72066e-05
5.30861e-05
4.91521e-05
4.5566e-05
4.24981e-05
4.00143e-05
3.79205e-05
3.64187e-05
3.53608e-05
3.40514e-05
3.21688e-05
2.98622e-05
2.80063e-05
2.93198e-05
2.58456e-05
1.78319e-05
1.20951e-05
8.57185e-06
7.52737e-06
9.05466e-06
7.65808e-07
3.02142e-09
8.35086e-09
2.068e-06
1.31633e-05
3.63992e-05
5.97918e-05
7.07495e-05
7.50684e-05
7.60248e-05
7.499e-05
7.2695e-05
6.95343e-05
6.57595e-05
6.16157e-05
5.73737e-05
5.31886e-05
4.91985e-05
4.55727e-05
4.25051e-05
3.98257e-05
3.73405e-05
3.52245e-05
3.36534e-05
3.23987e-05
3.07368e-05
2.89367e-05
3.0734e-05
3.01151e-05
2.34649e-05
1.70789e-05
1.16932e-05
8.41406e-06
7.49566e-06
9.6998e-06
7.91179e-07
3.10137e-09
9.36884e-09
2.30258e-06
1.35663e-05
3.73701e-05
6.04875e-05
7.07943e-05
7.47151e-05
7.5428e-05
7.42458e-05
7.18445e-05
6.86277e-05
6.48687e-05
6.07235e-05
5.64321e-05
5.22421e-05
4.82818e-05
4.46109e-05
4.13312e-05
3.85801e-05
3.64828e-05
3.50892e-05
3.40742e-05
3.30168e-05
3.13367e-05
2.94386e-05
3.12056e-05
3.02549e-05
2.34132e-05
1.7177e-05
1.16671e-05
8.2127e-06
7.29348e-06
9.81396e-06
8.09363e-07
3.15103e-09
9.83161e-09
2.40745e-06
1.4032e-05
3.84321e-05
6.16346e-05
7.18492e-05
7.56298e-05
7.61542e-05
7.4772e-05
7.2193e-05
6.88274e-05
6.49334e-05
6.08342e-05
5.68932e-05
5.29204e-05
4.88524e-05
4.49963e-05
4.15579e-05
3.87635e-05
3.66524e-05
3.49423e-05
3.34945e-05
3.21803e-05
3.05022e-05
2.90044e-05
3.09553e-05
2.98833e-05
2.29796e-05
1.65268e-05
1.11338e-05
7.93308e-06
7.25826e-06
1.03879e-05
7.96869e-07
3.07598e-09
1.09623e-08
2.66284e-06
1.45168e-05
3.95226e-05
6.2406e-05
7.21163e-05
7.56553e-05
7.60735e-05
7.4666e-05
7.20937e-05
6.87549e-05
6.49133e-05
6.06939e-05
5.60688e-05
5.15894e-05
4.76233e-05
4.40836e-05
4.10782e-05
3.85921e-05
3.64578e-05
3.46048e-05
3.3182e-05
3.18402e-05
3.0098e-05
2.88671e-05
3.07462e-05
2.92761e-05
2.23225e-05
1.5847e-05
1.06704e-05
7.78763e-06
7.40506e-06
1.10104e-05
7.92512e-07
3.10415e-09
1.14847e-08
2.77854e-06
1.49166e-05
4.03857e-05
6.32891e-05
7.29126e-05
7.63334e-05
7.65956e-05
7.50231e-05
7.2297e-05
6.88198e-05
6.4847e-05
6.05939e-05
5.62966e-05
5.21172e-05
4.81567e-05
4.45714e-05
4.14647e-05
3.87649e-05
3.64516e-05
3.45524e-05
3.2831e-05
3.0662e-05
2.88649e-05
2.96735e-05
3.19892e-05
2.79639e-05
2.13457e-05
1.58943e-05
1.09784e-05
7.99699e-06
7.53027e-06
1.11612e-05
8.11655e-07
3.23872e-09
1.26731e-08
3.04054e-06
1.5489e-05
4.1585e-05
6.41317e-05
7.33541e-05
7.65975e-05
7.67883e-05
7.52125e-05
7.25145e-05
6.90718e-05
6.51212e-05
6.08648e-05
5.6465e-05
5.21096e-05
4.80302e-05
4.43652e-05
4.11935e-05
3.85297e-05
3.63313e-05
3.46336e-05
3.31542e-05
3.11839e-05
2.93945e-05
3.10582e-05
3.27154e-05
2.74743e-05
2.14137e-05
1.61698e-05
1.1362e-05
8.16231e-06
7.55743e-06
1.13967e-05
8.29638e-07
3.25381e-09
1.32285e-08
3.16091e-06
1.59218e-05
4.24461e-05
6.49116e-05
7.40545e-05
7.7215e-05
7.7302e-05
7.56221e-05
7.28399e-05
6.93491e-05
6.54351e-05
6.13501e-05
5.72534e-05
5.31873e-05
4.91762e-05
4.53876e-05
4.20063e-05
3.90752e-05
3.656e-05
3.43224e-05
3.24912e-05
3.10036e-05
2.99829e-05
3.17051e-05
3.10836e-05
2.56645e-05
2.02538e-05
1.4914e-05
1.06581e-05
8.18269e-06
8.12097e-06
1.31378e-05
8.31883e-07
3.22225e-09
1.43731e-08
3.40868e-06
1.65121e-05
4.3617e-05
6.57395e-05
7.45657e-05
7.75786e-05
7.7616e-05
7.5959e-05
7.32477e-05
6.98437e-05
6.59909e-05
6.18895e-05
5.77059e-05
5.35685e-05
4.95286e-05
4.5588e-05
4.18818e-05
3.86962e-05
3.61241e-05
3.39313e-05
3.18789e-05
3.01457e-05
2.91782e-05
3.0491e-05
2.94059e-05
2.43169e-05
1.91261e-05
1.39956e-05
1.01594e-05
8.22284e-06
8.62666e-06
1.40478e-05
8.30016e-07
3.24022e-09
1.48411e-08
3.50833e-06
1.69069e-05
4.43822e-05
6.6381e-05
7.51208e-05
7.80643e-05
7.80514e-05
7.63696e-05
7.36664e-05
7.02974e-05
6.65138e-05
6.25071e-05
5.84279e-05
5.43873e-05
5.04606e-05
4.66791e-05
4.30277e-05
3.94885e-05
3.6271e-05
3.35982e-05
3.12672e-05
2.93094e-05
2.82121e-05
2.96614e-05
2.88573e-05
2.41199e-05
1.94913e-05
1.45832e-05
1.0596e-05
8.36538e-06
8.48638e-06
1.34637e-05
8.41663e-07
3.37628e-09
1.58511e-08
3.72267e-06
1.74522e-05
4.54293e-05
6.71155e-05
7.56354e-05
7.85646e-05
7.86661e-05
7.71709e-05
7.46875e-05
7.15321e-05
6.79321e-05
6.40165e-05
5.99248e-05
5.57734e-05
5.16752e-05
4.77379e-05
4.40354e-05
4.05371e-05
3.71546e-05
3.39246e-05
3.10837e-05
2.88896e-05
2.76947e-05
2.93661e-05
2.87017e-05
2.41891e-05
2.01265e-05
1.55589e-05
1.12868e-05
8.53664e-06
8.33377e-06
1.3493e-05
8.72556e-07
3.43946e-09
1.62702e-08
3.81062e-06
1.77578e-05
4.59733e-05
6.76307e-05
7.62206e-05
7.92792e-05
7.954e-05
7.82082e-05
7.58846e-05
7.28695e-05
6.93797e-05
6.55568e-05
6.15428e-05
5.74505e-05
5.33729e-05
4.93905e-05
4.55769e-05
4.19484e-05
3.84546e-05
3.50239e-05
3.16952e-05
2.88183e-05
2.7011e-05
2.77837e-05
2.66921e-05
2.24467e-05
1.84772e-05
1.44855e-05
1.10956e-05
8.99668e-06
9.30839e-06
1.57895e-05
8.84649e-07
3.45347e-09
1.71581e-08
3.99723e-06
1.81915e-05
4.66986e-05
6.82632e-05
7.69028e-05
8.01159e-05
8.05928e-05
7.94963e-05
7.74058e-05
7.45969e-05
7.12522e-05
6.75021e-05
6.34734e-05
5.92835e-05
5.50453e-05
5.08634e-05
4.68267e-05
4.296e-05
3.92348e-05
3.55783e-05
3.19257e-05
2.8343e-05
2.56051e-05
2.52926e-05
2.40141e-05
2.05178e-05
1.69913e-05
1.34857e-05
1.08126e-05
9.48588e-06
1.04245e-05
1.6797e-05
9.10647e-07
3.55656e-09
1.73994e-08
4.0475e-06
1.83965e-05
4.69204e-05
6.8568e-05
7.74763e-05
8.09174e-05
8.1599e-05
8.06822e-05
7.87554e-05
7.60932e-05
7.28661e-05
6.9211e-05
6.52525e-05
6.11074e-05
5.68812e-05
5.26647e-05
4.85276e-05
4.44881e-05
4.05523e-05
3.66827e-05
3.27381e-05
2.85335e-05
2.50066e-05
2.42492e-05
2.27236e-05
1.94198e-05
1.67071e-05
1.37272e-05
1.10713e-05
9.58763e-06
1.03077e-05
1.63653e-05
9.52885e-07
3.84035e-09
1.80284e-08
4.16439e-06
1.85945e-05
4.68258e-05
6.88211e-05
7.80667e-05
8.18347e-05
8.28554e-05
8.22761e-05
8.06764e-05
7.83133e-05
7.53358e-05
7.18586e-05
6.79944e-05
6.38589e-05
5.95699e-05
5.52419e-05
5.09708e-05
4.67868e-05
4.27124e-05
3.87327e-05
3.46385e-05
2.98314e-05
2.52759e-05
2.38176e-05
2.17458e-05
1.85816e-05
1.64345e-05
1.38078e-05
1.11503e-05
9.47009e-06
1.01133e-05
1.67151e-05
1.01248e-06
4.03395e-09
1.83797e-08
4.22064e-06
1.87583e-05
4.69097e-05
6.89129e-05
7.85553e-05
8.27465e-05
8.41382e-05
8.38596e-05
8.25047e-05
8.0343e-05
7.75172e-05
7.41543e-05
7.03806e-05
6.63253e-05
6.21112e-05
5.78455e-05
5.36112e-05
4.94329e-05
4.53227e-05
4.1247e-05
3.69338e-05
3.14273e-05
2.58596e-05
2.30151e-05
2.01009e-05
1.67697e-05
1.47986e-05
1.29617e-05
1.10927e-05
9.95268e-06
1.12548e-05
1.8533e-05
1.048e-06
4.13232e-09
1.89313e-08
4.31656e-06
1.87668e-05
4.65143e-05
6.89848e-05
7.91297e-05
8.36964e-05
8.54243e-05
8.54456e-05
8.43562e-05
8.24217e-05
7.97667e-05
7.65136e-05
7.2788e-05
6.8727e-05
6.44672e-05
6.01365e-05
5.58485e-05
5.16703e-05
4.76251e-05
4.36196e-05
3.91983e-05
3.29327e-05
2.64158e-05
2.19287e-05
1.88845e-05
1.55808e-05
1.31283e-05
1.17784e-05
1.07861e-05
1.05441e-05
1.25381e-05
1.87664e-05
1.08566e-06
4.27184e-09
1.91743e-08
4.37081e-06
1.85745e-05
4.59988e-05
6.88994e-05
7.96167e-05
8.45671e-05
8.65723e-05
8.67792e-05
8.58078e-05
8.39396e-05
8.1304e-05
7.80312e-05
7.42752e-05
7.02e-05
6.59427e-05
6.16399e-05
5.74296e-05
5.34023e-05
4.95982e-05
4.58936e-05
4.15386e-05
3.52725e-05
2.79096e-05
2.18733e-05
1.87741e-05
1.56857e-05
1.2744e-05
1.13866e-05
1.06434e-05
1.06152e-05
1.26221e-05
1.83199e-05
1.14142e-06
4.69816e-09
1.96186e-08
4.4867e-06
1.84481e-05
4.51925e-05
6.87495e-05
8.0127e-05
8.54664e-05
8.77379e-05
8.81084e-05
8.72579e-05
8.54791e-05
8.29048e-05
7.96672e-05
7.59666e-05
7.19976e-05
6.7815e-05
6.3637e-05
5.96747e-05
5.59411e-05
5.22864e-05
4.85974e-05
4.44944e-05
3.92774e-05
3.12061e-05
2.30562e-05
1.96785e-05
1.62535e-05
1.26834e-05
1.12875e-05
1.04456e-05
1.01715e-05
1.19616e-05
1.81827e-05
1.20308e-06
4.98295e-09
2.01802e-08
4.62956e-06
1.82652e-05
4.44524e-05
6.84422e-05
8.0446e-05
8.61683e-05
8.87297e-05
8.92562e-05
8.85018e-05
8.67724e-05
8.42104e-05
8.09482e-05
7.72837e-05
7.33471e-05
6.90852e-05
6.46198e-05
6.07998e-05
5.74982e-05
5.46789e-05
5.19555e-05
4.84923e-05
4.30895e-05
3.41397e-05
2.47884e-05
2.0494e-05
1.61833e-05
1.24229e-05
1.09073e-05
1.00372e-05
1.00674e-05
1.23702e-05
1.89017e-05
1.25228e-06
5.01436e-09
2.1568e-08
4.9091e-06
1.83364e-05
4.43569e-05
6.86388e-05
8.09558e-05
8.69569e-05
8.97505e-05
9.03289e-05
8.94951e-05
8.75755e-05
8.47741e-05
8.11964e-05
7.67096e-05
7.19415e-05
6.79118e-05
6.50519e-05
6.23702e-05
5.98888e-05
5.75153e-05
5.49755e-05
5.15232e-05
4.58467e-05
3.63328e-05
2.62505e-05
2.06728e-05
1.55886e-05
1.16594e-05
1.02026e-05
9.87447e-06
1.05754e-05
1.3663e-05
1.87831e-05
1.2761e-06
5.09562e-09
2.3333e-08
5.25701e-06
1.85251e-05
4.45729e-05
6.88161e-05
8.09085e-05
8.67765e-05
8.9549e-05
9.0045e-05
8.9093e-05
8.69056e-05
8.36424e-05
7.94113e-05
7.48503e-05
7.07254e-05
6.71931e-05
6.4554e-05
6.26938e-05
6.12954e-05
5.98553e-05
5.78995e-05
5.47099e-05
4.81154e-05
3.81514e-05
2.8228e-05
2.2538e-05
1.66196e-05
1.18025e-05
9.91387e-06
9.60278e-06
1.07052e-05
1.42078e-05
1.84549e-05
1.33093e-06
5.52151e-09
2.5455e-08
5.66624e-06
1.88363e-05
4.49603e-05
6.89477e-05
8.06385e-05
8.62347e-05
8.87558e-05
8.89297e-05
8.76125e-05
8.50194e-05
8.13926e-05
7.65613e-05
7.18761e-05
6.78488e-05
6.49368e-05
6.3712e-05
6.3966e-05
6.49158e-05
6.53506e-05
6.38523e-05
5.95537e-05
5.20858e-05
4.18198e-05
3.14538e-05
2.59724e-05
1.89788e-05
1.28355e-05
1.03631e-05
9.85679e-06
1.06083e-05
1.33422e-05
1.89697e-05
1.42285e-06
6.0112e-09
2.73687e-08
5.94816e-06
1.93501e-05
4.60956e-05
6.95604e-05
8.06114e-05
8.58916e-05
8.80674e-05
8.80834e-05
8.6432e-05
8.31343e-05
7.82853e-05
7.36437e-05
6.88033e-05
6.42557e-05
6.16974e-05
6.15865e-05
6.38267e-05
6.75926e-05
7.09456e-05
7.09918e-05
6.64167e-05
5.84297e-05
4.7554e-05
3.58928e-05
2.89634e-05
2.07763e-05
1.39918e-05
1.09751e-05
9.80179e-06
1.02288e-05
1.34e-05
1.9547e-05
1.51555e-06
6.15651e-09
2.90812e-08
6.13655e-06
2.00651e-05
4.76872e-05
7.04736e-05
8.07259e-05
8.53867e-05
8.68493e-05
8.63421e-05
8.36479e-05
7.97243e-05
7.53634e-05
6.98153e-05
6.42188e-05
6.02734e-05
5.87654e-05
6.0056e-05
6.41116e-05
7.00099e-05
7.52012e-05
7.58487e-05
7.10506e-05
6.36064e-05
5.3618e-05
4.13474e-05
3.05524e-05
2.01461e-05
1.35881e-05
1.07935e-05
9.92213e-06
1.08474e-05
1.50708e-05
1.88667e-05
1.53508e-06
6.22876e-09
3.05399e-08
6.32277e-06
2.07913e-05
4.91515e-05
7.11387e-05
8.05124e-05
8.43368e-05
8.50194e-05
8.32403e-05
8.04172e-05
7.67504e-05
7.1274e-05
6.51312e-05
5.97246e-05
5.62353e-05
5.56575e-05
5.84422e-05
6.4305e-05
7.1737e-05
7.72523e-05
7.68936e-05
7.30291e-05
6.7541e-05
5.88222e-05
4.74722e-05
3.33085e-05
2.06881e-05
1.36072e-05
1.06891e-05
1.0064e-05
1.13607e-05
1.59501e-05
1.83922e-05
1.62229e-06
6.57531e-09
3.16382e-08
6.47437e-06
2.14429e-05
5.04852e-05
7.15335e-05
7.9895e-05
8.28306e-05
8.26707e-05
8.09167e-05
7.81449e-05
7.35211e-05
6.77368e-05
6.16002e-05
5.64343e-05
5.33051e-05
5.28551e-05
5.58998e-05
6.25684e-05
7.16538e-05
7.90804e-05
7.99275e-05
7.67206e-05
7.16068e-05
6.32165e-05
5.30808e-05
3.84153e-05
2.41304e-05
1.51029e-05
1.10067e-05
1.01344e-05
1.1548e-05
1.6256e-05
1.9168e-05
1.71499e-06
7.07166e-09
3.22085e-08
6.56599e-06
2.17506e-05
5.0931e-05
7.1249e-05
7.88863e-05
8.12372e-05
8.07564e-05
7.87521e-05
7.52429e-05
7.06119e-05
6.53418e-05
5.97772e-05
5.44446e-05
5.08121e-05
5.02059e-05
5.30247e-05
5.97562e-05
6.96386e-05
7.90356e-05
8.23786e-05
8.08605e-05
7.63828e-05
6.73887e-05
5.69671e-05
4.23648e-05
2.81537e-05
1.81158e-05
1.24528e-05
1.05705e-05
1.14173e-05
1.58083e-05
1.95729e-05
1.84398e-06
7.54646e-09
3.24437e-08
6.6092e-06
2.19071e-05
5.09892e-05
7.06538e-05
7.7864e-05
7.99035e-05
7.92817e-05
7.71427e-05
7.3789e-05
6.9648e-05
6.46321e-05
5.9119e-05
5.36805e-05
4.92287e-05
4.73452e-05
4.93561e-05
5.55003e-05
6.5346e-05
7.63428e-05
8.25127e-05
8.35871e-05
8.06443e-05
7.14224e-05
5.86924e-05
4.25799e-05
2.86839e-05
1.9467e-05
1.37221e-05
1.11847e-05
1.20663e-05
1.79872e-05
1.86358e-05
1.91055e-06
7.8375e-09
3.24793e-08
6.62266e-06
2.19403e-05
5.09428e-05
7.04186e-05
7.74808e-05
7.94114e-05
7.87141e-05
7.65515e-05
7.34039e-05
6.92482e-05
6.42183e-05
5.86533e-05
5.30709e-05
4.83683e-05
4.54992e-05
4.55902e-05
5.03501e-05
5.991e-05
7.12324e-05
7.94822e-05
8.31809e-05
8.24176e-05
7.47008e-05
5.93864e-05
4.1956e-05
2.81881e-05
1.91911e-05
1.41305e-05
1.21625e-05
1.35603e-05
2.01052e-05
1.76619e-05
1.97057e-06
8.05973e-09
3.27685e-08
6.65193e-06
2.19442e-05
5.04319e-05
6.99597e-05
7.71312e-05
7.91047e-05
7.84668e-05
7.64068e-05
7.33576e-05
6.92788e-05
6.43023e-05
5.86434e-05
5.27198e-05
4.74327e-05
4.39764e-05
4.31568e-05
4.54795e-05
5.21473e-05
6.30719e-05
7.43318e-05
8.15046e-05
8.17955e-05
7.47701e-05
6.03241e-05
4.31922e-05
2.89726e-05
1.96098e-05
1.46135e-05
1.2901e-05
1.45021e-05
2.11602e-05
1.79742e-05
2.0941e-06
8.59349e-09
3.29293e-08
6.66771e-06
2.18706e-05
4.96744e-05
6.89881e-05
7.64452e-05
7.8574e-05
7.80327e-05
7.61233e-05
7.29675e-05
6.90246e-05
6.45397e-05
5.94329e-05
5.37325e-05
4.78291e-05
4.27083e-05
3.98981e-05
4.08127e-05
4.57209e-05
5.43864e-05
6.56594e-05
7.57896e-05
8.01134e-05
7.39375e-05
6.02048e-05
4.51207e-05
3.12899e-05
2.1155e-05
1.54233e-05
1.34215e-05
1.50247e-05
2.18965e-05
1.90902e-05
2.25141e-06
9.47516e-09
3.2791e-08
6.65924e-06
2.16097e-05
4.91577e-05
6.86483e-05
7.63193e-05
7.89489e-05
7.86704e-05
7.63981e-05
7.32956e-05
6.96503e-05
6.55566e-05
6.09813e-05
5.59096e-05
5.03499e-05
4.46933e-05
3.99495e-05
3.75343e-05
3.9143e-05
4.53465e-05
5.56084e-05
6.70564e-05
7.51831e-05
7.2206e-05
6.00534e-05
4.66538e-05
3.39019e-05
2.35856e-05
1.68041e-05
1.41036e-05
1.53469e-05
2.15877e-05
2.07995e-05
2.38095e-06
1.01317e-08
3.25901e-08
6.64107e-06
2.12287e-05
4.83863e-05
6.84213e-05
7.64734e-05
7.90566e-05
7.87823e-05
7.70864e-05
7.45648e-05
7.11993e-05
6.71075e-05
6.25337e-05
5.76708e-05
5.25343e-05
4.71059e-05
4.17968e-05
3.76692e-05
3.60371e-05
3.83664e-05
4.57788e-05
5.73747e-05
6.87887e-05
6.89458e-05
5.87547e-05
4.65079e-05
3.45398e-05
2.48652e-05
1.82946e-05
1.49995e-05
1.57635e-05
2.25757e-05
2.09558e-05
2.54055e-06
1.06346e-08
3.2451e-08
6.62288e-06
2.07213e-05
4.72617e-05
6.78294e-05
7.60876e-05
7.88345e-05
7.89969e-05
7.75969e-05
7.51055e-05
7.1791e-05
6.78219e-05
6.34795e-05
5.90234e-05
5.45159e-05
4.97772e-05
4.46577e-05
3.95718e-05
3.58017e-05
3.48103e-05
3.79863e-05
4.76871e-05
5.82868e-05
6.03647e-05
5.59126e-05
4.56195e-05
3.40346e-05
2.47428e-05
1.87792e-05
1.60041e-05
1.72221e-05
2.44814e-05
2.07974e-05
2.62671e-06
1.09551e-08
3.20036e-08
6.57243e-06
2.04514e-05
4.67096e-05
6.72361e-05
7.59731e-05
7.9334e-05
7.97895e-05
7.84374e-05
7.58986e-05
7.24421e-05
6.82758e-05
6.37691e-05
5.93939e-05
5.53259e-05
5.14367e-05
4.72904e-05
4.25967e-05
3.77606e-05
3.41544e-05
3.38133e-05
3.97526e-05
4.81183e-05
5.15228e-05
5.104e-05
4.41228e-05
3.40122e-05
2.50499e-05
1.92129e-05
1.67908e-05
1.8433e-05
2.5815e-05
2.14708e-05
2.79673e-06
1.20612e-08
3.16979e-08
6.534e-06
2.00437e-05
4.58457e-05
6.72804e-05
7.66006e-05
8.00436e-05
8.0439e-05
7.9015e-05
7.64117e-05
7.28723e-05
6.85612e-05
6.39042e-05
5.94038e-05
5.53777e-05
5.18294e-05
4.86262e-05
4.51034e-05
4.08415e-05
3.6354e-05
3.37307e-05
3.71243e-05
4.25234e-05
4.45897e-05
4.62737e-05
4.30475e-05
3.5405e-05
2.68334e-05
2.04199e-05
1.75457e-05
1.89898e-05
2.61932e-05
2.36688e-05
2.95175e-06
1.3161e-08
3.22203e-08
6.5419e-06
2.01371e-05
4.62923e-05
6.76296e-05
7.68416e-05
8.03882e-05
8.09061e-05
7.95302e-05
7.68603e-05
7.3185e-05
6.87017e-05
6.3779e-05
5.895e-05
5.51123e-05
5.22835e-05
4.96538e-05
4.67246e-05
4.31059e-05
3.89741e-05
3.55775e-05
3.72569e-05
4.05108e-05
4.07888e-05
4.21038e-05
4.10971e-05
3.59313e-05
2.86873e-05
2.21707e-05
1.84991e-05
1.90092e-05
2.56063e-05
2.54766e-05
3.12452e-06
1.37438e-08
3.2745e-08
6.55816e-06
2.02995e-05
4.65249e-05
6.7562e-05
7.66496e-05
8.0244e-05
8.08313e-05
7.94926e-05
7.67525e-05
7.30358e-05
6.82539e-05
6.30839e-05
5.85218e-05
5.47935e-05
5.23097e-05
5.07577e-05
4.90769e-05
4.63108e-05
4.22967e-05
3.83395e-05
3.87296e-05
4.04678e-05
3.93234e-05
3.9394e-05
3.87272e-05
3.47703e-05
2.87849e-05
2.29569e-05
1.94605e-05
2.02705e-05
2.77693e-05
2.4792e-05
3.31802e-06
1.42386e-08
3.35158e-08
6.64248e-06
2.06371e-05
4.70936e-05
6.78497e-05
7.67821e-05
8.02914e-05
8.07916e-05
7.93535e-05
7.63767e-05
7.22298e-05
6.74117e-05
6.19631e-05
5.6604e-05
5.27361e-05
5.06407e-05
4.98169e-05
4.93661e-05
4.81646e-05
4.5621e-05
4.22347e-05
4.12874e-05
4.0597e-05
3.8431e-05
3.76058e-05
3.60523e-05
3.22211e-05
2.73075e-05
2.29816e-05
2.08798e-05
2.31224e-05
3.18771e-05
2.3585e-05
3.44525e-06
1.48417e-08
3.40003e-08
6.69336e-06
2.09252e-05
4.76741e-05
6.80338e-05
7.66443e-05
7.98433e-05
8.00223e-05
7.8436e-05
7.57198e-05
7.14694e-05
6.58328e-05
5.98712e-05
5.47596e-05
5.10863e-05
4.90693e-05
4.8466e-05
4.85102e-05
4.8281e-05
4.70061e-05
4.48958e-05
4.32611e-05
4.08392e-05
3.81585e-05
3.64971e-05
3.40166e-05
3.02222e-05
2.61443e-05
2.31588e-05
2.26626e-05
2.6541e-05
3.5283e-05
2.28501e-05
3.62906e-06
1.56852e-08
3.43922e-08
6.74224e-06
2.12005e-05
4.82535e-05
6.80569e-05
7.61145e-05
7.91118e-05
7.93293e-05
7.7522e-05
7.41086e-05
6.94208e-05
6.38597e-05
5.81013e-05
5.2969e-05
4.9279e-05
4.73689e-05
4.70209e-05
4.7545e-05
4.80095e-05
4.77505e-05
4.6543e-05
4.47686e-05
4.19728e-05
3.88477e-05
3.62555e-05
3.3364e-05
2.95945e-05
2.59149e-05
2.36056e-05
2.38655e-05
2.83314e-05
3.67607e-05
2.33345e-05
3.82543e-06
1.65307e-08
3.44291e-08
6.75842e-06
2.12793e-05
4.82788e-05
6.79138e-05
7.59102e-05
7.8645e-05
7.83569e-05
7.62278e-05
7.26886e-05
6.80698e-05
6.26417e-05
5.69398e-05
5.18163e-05
4.80172e-05
4.59304e-05
4.55046e-05
4.62175e-05
4.71552e-05
4.74573e-05
4.70503e-05
4.63405e-05
4.39531e-05
4.03711e-05
3.72996e-05
3.40473e-05
3.02941e-05
2.65976e-05
2.41587e-05
2.43599e-05
2.88943e-05
3.78426e-05
2.45406e-05
4.12942e-06
1.82395e-08
3.43899e-08
6.75296e-06
2.12696e-05
4.84518e-05
6.79794e-05
7.5526e-05
7.77351e-05
7.7169e-05
7.50263e-05
7.17846e-05
6.74492e-05
6.21573e-05
5.6432e-05
5.10174e-05
4.68162e-05
4.44551e-05
4.39664e-05
4.4875e-05
4.63186e-05
4.71965e-05
4.68144e-05
4.69596e-05
4.54261e-05
4.19813e-05
3.93663e-05
3.64351e-05
3.24251e-05
2.78476e-05
2.47189e-05
2.4782e-05
2.95778e-05
3.86939e-05
2.74031e-05
4.30146e-06
1.94022e-08
3.40635e-08
6.70026e-06
2.12114e-05
4.82407e-05
6.72939e-05
7.46148e-05
7.69231e-05
7.66338e-05
7.46632e-05
7.1403e-05
6.70443e-05
6.17887e-05
5.60868e-05
5.06544e-05
4.62999e-05
4.36079e-05
4.27817e-05
4.3578e-05
4.52103e-05
4.6386e-05
4.61721e-05
4.66468e-05
4.53969e-05
4.24528e-05
4.07845e-05
3.85898e-05
3.49867e-05
3.03963e-05
2.64904e-05
2.53092e-05
2.89782e-05
3.91783e-05
2.78362e-05
4.54909e-06
2.02134e-08
3.3829e-08
6.68137e-06
2.11253e-05
4.78785e-05
6.68896e-05
7.43847e-05
7.68038e-05
7.64745e-05
7.4429e-05
7.11194e-05
6.67347e-05
6.14665e-05
5.56437e-05
4.99791e-05
4.54049e-05
4.25941e-05
4.17534e-05
4.26731e-05
4.46274e-05
4.61792e-05
4.59828e-05
4.5601e-05
4.38806e-05
4.14646e-05
4.03274e-05
3.86835e-05
3.56232e-05
3.1396e-05
2.7655e-05
2.69214e-05
3.22064e-05
4.3084e-05
2.73625e-05
4.65647e-06
2.07556e-08
3.35605e-08
6.64232e-06
2.09781e-05
4.77199e-05
6.68593e-05
7.42974e-05
7.65794e-05
7.61604e-05
7.41243e-05
7.09736e-05
6.67415e-05
6.13969e-05
5.53741e-05
4.94705e-05
4.45631e-05
4.1413e-05
4.03187e-05
4.11562e-05
4.33318e-05
4.54132e-05
4.55804e-05
4.42874e-05
4.18594e-05
3.96257e-05
3.8452e-05
3.70905e-05
3.48546e-05
3.17743e-05
2.93268e-05
2.99958e-05
3.65484e-05
4.56169e-05
2.65999e-05
4.68022e-06
2.10979e-08
3.32062e-08
6.59257e-06
2.08477e-05
4.73641e-05
6.64424e-05
7.3997e-05
7.64372e-05
7.61548e-05
7.41667e-05
7.09039e-05
6.64831e-05
6.10236e-05
5.48439e-05
4.86723e-05
4.34725e-05
4.01467e-05
3.89549e-05
3.97051e-05
4.20021e-05
4.45522e-05
4.56238e-05
4.37846e-05
4.04747e-05
3.79183e-05
3.63282e-05
3.51734e-05
3.37271e-05
3.20616e-05
3.12439e-05
3.34809e-05
4.09555e-05
4.816e-05
2.57883e-05
4.79511e-06
2.15408e-08
3.28434e-08
6.5323e-06
2.06165e-05
4.69114e-05
6.61636e-05
7.38608e-05
7.63349e-05
7.60286e-05
7.40174e-05
7.07932e-05
6.64222e-05
6.09387e-05
5.47765e-05
4.83639e-05
4.26342e-05
3.86612e-05
3.72127e-05
3.81085e-05
4.06311e-05
4.37737e-05
4.55911e-05
4.41886e-05
4.05665e-05
3.70834e-05
3.46966e-05
3.33982e-05
3.26671e-05
3.22707e-05
3.30577e-05
3.65489e-05
4.37939e-05
4.94008e-05
2.61266e-05
4.97916e-06
2.23664e-08
3.23395e-08
6.45774e-06
2.04821e-05
4.67147e-05
6.60591e-05
7.38887e-05
7.64615e-05
7.61968e-05
7.4195e-05
7.09647e-05
6.6646e-05
6.12495e-05
5.48014e-05
4.80512e-05
4.21496e-05
3.78584e-05
3.56233e-05
3.60785e-05
3.88927e-05
4.26596e-05
4.57004e-05
4.53011e-05
4.17505e-05
3.76973e-05
3.44065e-05
3.244e-05
3.17158e-05
3.20338e-05
3.37866e-05
3.82723e-05
4.59313e-05
5.06318e-05
2.68406e-05
5.20386e-06
2.36298e-08
3.17973e-08
6.37625e-06
2.03001e-05
4.6416e-05
6.58612e-05
7.38284e-05
7.64929e-05
7.63089e-05
7.43711e-05
7.12105e-05
6.69302e-05
6.15858e-05
5.52376e-05
4.82976e-05
4.17866e-05
3.68996e-05
3.43816e-05
3.42897e-05
3.65987e-05
4.0788e-05
4.52563e-05
4.64248e-05
4.35553e-05
3.93832e-05
3.53865e-05
3.26828e-05
3.14637e-05
3.16956e-05
3.36711e-05
3.84915e-05
4.65113e-05
5.1588e-05
2.77402e-05
5.41435e-06
2.49545e-08
3.09911e-08
6.26873e-06
2.01237e-05
4.62269e-05
6.57886e-05
7.39067e-05
7.67086e-05
7.66706e-05
7.48921e-05
7.18913e-05
6.77434e-05
6.24088e-05
5.60164e-05
4.90295e-05
4.21048e-05
3.64868e-05
3.31336e-05
3.24975e-05
3.45531e-05
3.87756e-05
4.42759e-05
4.69672e-05
4.51167e-05
4.14296e-05
3.69962e-05
3.34045e-05
3.15016e-05
3.13485e-05
3.32811e-05
3.83554e-05
4.68659e-05
5.2509e-05
2.85936e-05
5.60535e-06
2.62113e-08
3.03444e-08
6.16924e-06
2.00356e-05
4.61318e-05
6.57464e-05
7.40375e-05
7.70655e-05
7.72206e-05
7.55726e-05
7.26373e-05
6.85448e-05
6.33027e-05
5.69067e-05
4.96608e-05
4.24204e-05
3.62689e-05
3.22845e-05
3.10242e-05
3.26679e-05
3.68247e-05
4.29531e-05
4.65902e-05
4.56408e-05
4.30249e-05
3.89322e-05
3.49068e-05
3.22327e-05
3.15304e-05
3.32708e-05
3.83829e-05
4.71287e-05
5.31832e-05
2.94036e-05
5.7754e-06
2.73022e-08
2.97228e-08
6.07155e-06
1.99504e-05
4.60077e-05
6.56515e-05
7.41672e-05
7.74805e-05
7.78889e-05
7.64394e-05
7.36461e-05
6.96474e-05
6.43941e-05
5.8016e-05
5.06779e-05
4.2976e-05
3.61676e-05
3.15904e-05
2.9809e-05
3.10153e-05
3.56888e-05
4.14044e-05
4.4399e-05
4.56335e-05
4.4599e-05
4.11003e-05
3.68736e-05
3.36072e-05
3.22744e-05
3.35313e-05
3.83758e-05
4.72354e-05
5.4027e-05
3.02522e-05
5.92375e-06
2.82195e-08
2.91313e-08
6.00789e-06
1.99891e-05
4.58471e-05
6.54023e-05
7.42148e-05
7.7874e-05
7.86125e-05
7.73939e-05
7.47315e-05
7.07795e-05
6.55307e-05
5.90168e-05
5.14698e-05
4.35707e-05
3.63323e-05
3.09512e-05
2.86793e-05
2.96182e-05
3.38112e-05
3.88531e-05
4.26242e-05
4.54642e-05
4.55344e-05
4.28069e-05
3.87113e-05
3.50388e-05
3.31467e-05
3.40911e-05
3.91766e-05
4.88479e-05
5.56501e-05
3.00464e-05
6.02825e-06
2.89939e-08
2.85744e-08
5.96551e-06
2.0045e-05
4.56563e-05
6.51182e-05
7.42039e-05
7.81753e-05
7.91456e-05
7.80383e-05
7.53926e-05
7.14347e-05
6.62726e-05
6.00106e-05
5.27312e-05
4.4742e-05
3.69398e-05
3.08642e-05
2.76048e-05
2.79185e-05
3.11461e-05
3.59722e-05
4.08785e-05
4.42711e-05
4.50195e-05
4.31468e-05
3.96889e-05
3.62749e-05
3.44753e-05
3.57075e-05
4.14493e-05
5.14933e-05
5.66819e-05
3.02135e-05
6.09107e-06
2.95177e-08
2.78769e-08
5.88295e-06
1.98745e-05
4.52338e-05
6.48122e-05
7.4164e-05
7.83529e-05
7.94548e-05
7.84185e-05
7.5794e-05
7.18865e-05
6.69177e-05
6.11037e-05
5.44488e-05
4.68985e-05
3.88784e-05
3.166e-05
2.69581e-05
2.59207e-05
2.80292e-05
3.21236e-05
3.74762e-05
4.1772e-05
4.34438e-05
4.24804e-05
4.00664e-05
3.75103e-05
3.63168e-05
3.80548e-05
4.40972e-05
5.35254e-05
5.74656e-05
2.97155e-05
6.15923e-06
2.99887e-08
2.72881e-08
5.81348e-06
1.96275e-05
4.45731e-05
6.43551e-05
7.40695e-05
7.85208e-05
7.97787e-05
7.87847e-05
7.61246e-05
7.21837e-05
6.73135e-05
6.18807e-05
5.59361e-05
4.9211e-05
4.16578e-05
3.40472e-05
2.79904e-05
2.52829e-05
2.55041e-05
2.84853e-05
3.37641e-05
3.87451e-05
4.14333e-05
4.16119e-05
4.01488e-05
3.85322e-05
3.81204e-05
4.03841e-05
4.66319e-05
5.57185e-05
5.83227e-05
2.98968e-05
6.30866e-06
3.06184e-08
2.66254e-08
5.73487e-06
1.92705e-05
4.37045e-05
6.37434e-05
7.38612e-05
7.85483e-05
7.98986e-05
7.88689e-05
7.61184e-05
7.20927e-05
6.7346e-05
6.2394e-05
5.73648e-05
5.18038e-05
4.51375e-05
3.76316e-05
3.04918e-05
2.59258e-05
2.4081e-05
2.535e-05
2.98683e-05
3.51096e-05
3.89001e-05
4.02148e-05
3.98538e-05
3.91962e-05
3.97111e-05
4.28236e-05
4.94855e-05
5.802e-05
5.92364e-05
3.00964e-05
6.44596e-06
3.12135e-08
2.61021e-08
5.67786e-06
1.89049e-05
4.29265e-05
6.32786e-05
7.36868e-05
7.84779e-05
7.97879e-05
7.85691e-05
7.56062e-05
7.14099e-05
6.67229e-05
6.22447e-05
5.82171e-05
5.41223e-05
4.89127e-05
4.19536e-05
3.44813e-05
2.81244e-05
2.41365e-05
2.34159e-05
2.61802e-05
3.12293e-05
3.59588e-05
3.87369e-05
3.95795e-05
3.98498e-05
4.11233e-05
4.48916e-05
5.18405e-05
5.95371e-05
5.9869e-05
3.0415e-05
6.57148e-06
3.18493e-08
2.56022e-08
5.59847e-06
1.83773e-05
4.22358e-05
6.29392e-05
7.34223e-05
7.80724e-05
7.90789e-05
7.76419e-05
7.45007e-05
7.00636e-05
6.53198e-05
6.11989e-05
5.8056e-05
5.54616e-05
5.23324e-05
4.7245e-05
3.97542e-05
3.18479e-05
2.57777e-05
2.31561e-05
2.40542e-05
2.75587e-05
3.21968e-05
3.61706e-05
3.85088e-05
4.0021e-05
4.20459e-05
4.60955e-05
5.29816e-05
6.0524e-05
6.01928e-05
3.06536e-05
6.70009e-06
3.25621e-08
2.52826e-08
5.51819e-06
1.81722e-05
4.18796e-05
6.23275e-05
7.25636e-05
7.70299e-05
7.77768e-05
7.5849e-05
7.18447e-05
6.7134e-05
6.24118e-05
5.88009e-05
5.67141e-05
5.56102e-05
5.43068e-05
5.13622e-05
4.57287e-05
3.76611e-05
2.96538e-05
2.4937e-05
2.35307e-05
2.50655e-05
2.88577e-05
3.27088e-05
3.61554e-05
3.8911e-05
4.21742e-05
4.73156e-05
5.47307e-05
6.15723e-05
6.02095e-05
3.08319e-05
6.79969e-06
3.33543e-08
2.51295e-08
5.41537e-06
1.77099e-05
4.13596e-05
6.21629e-05
7.21517e-05
7.61805e-05
7.61395e-05
7.35149e-05
6.93774e-05
6.41498e-05
5.93536e-05
5.63925e-05
5.54742e-05
5.59582e-05