/*--------------------------------*- C++ -*----------------------------------*\
  =========                 |
  \\      /  F ield         | OpenFOAM: The Open Source CFD Toolbox
   \\    /   O peration     | Website:  https://openfoam.org
    \\  /    A nd           | Version:  11
     \\/     M anipulation  |
\*---------------------------------------------------------------------------*/
FoamFile
{
    format      ascii;
    class       volScalarField;
    location    "700";
    object      omega;
}
// * * * * * * * * * * * * * * * * * * * * * * * * * * * * * * * * * * * * * //

dimensions      [0 0 -1 0 0 0 0];

internalField   nonuniform List<scalar> 
78750
(
1021.59
113.813
22.8876
22.8974
22.9058
22.9138
22.9211
22.9274
22.9329
22.9378
22.9423
22.9465
22.9503
22.9539
22.9571
22.9601
22.9629
22.9654
22.9677
22.9698
22.9716
22.9732
22.9745
22.9756
22.9765
22.9771
22.9774
22.9774
22.9774
22.9774
22.9775
22.9788
22.9924
115.043
1073.42
1021.02
113.638
4.01648
4.84915
5.23211
5.59136
5.88626
6.11774
6.2984
6.43906
6.55342
6.63905
6.69696
6.7332
6.75021
6.74863
6.74088
6.71972
6.68821
6.64387
6.58995
6.517
6.433
6.34511
6.26353
6.19205
6.1292
6.09174
6.0916
6.13626
6.26447
6.46125
6.40945
115.392
1078.96
1021.01
113.649
4.01854
5.22498
5.87788
6.34173
6.65719
6.8786
7.0346
7.13848
7.19331
7.21381
7.2117
7.18843
7.14611
7.08674
7.01136
6.92116
6.8168
6.70663
6.5945
6.48098
6.36433
6.24739
6.13503
6.02456
5.92027
5.83521
5.77307
5.74822
5.76714
5.81106
5.66469
116.001
1080.92
1021.11
113.716
4.02206
5.77991
6.36405
6.69766
6.91011
7.05365
7.15073
7.21353
7.24944
7.26149
7.25441
7.22534
7.17794
7.11245
7.02929
6.93035
6.81804
6.69365
6.55416
6.40177
6.24501
6.09064
5.94392
5.80112
5.67037
5.56323
5.48321
5.43802
5.42772
5.37807
4.96732
116.546
1082.34
1021.16
113.741
5.0922
6.13458
6.67167
6.98929
7.20192
7.35185
7.45519
7.51976
7.55009
7.54979
7.52699
7.47442
7.3963
7.29578
7.1762
7.03945
6.88731
6.72368
6.55346
6.37741
6.19889
6.02338
5.85397
5.68777
5.53418
5.40546
5.30294
5.23267
5.19806
5.15532
5.03742
116.91
1083.17
1021.21
113.775
5.45354
6.41003
6.88126
7.15975
7.34625
7.47391
7.5568
7.6028
7.61682
7.60489
7.56493
7.50153
7.4166
7.3116
7.18796
7.04735
6.89119
6.72249
6.54431
6.36091
6.17525
5.98926
5.80318
5.61565
5.44054
5.29257
5.17022
5.07968
5.02873
4.96841
4.08966
117.226
1083.8
1021.24
113.787
5.67025
6.61051
7.07673
7.35643
7.54664
7.67843
7.76469
7.81237
7.8258
7.81116
7.76633
7.69504
7.59916
7.48056
7.3412
7.18339
7.00993
6.82421
6.62927
6.42686
6.22058
6.01533
5.81356
5.61365
5.42699
5.26423
5.12034
4.9971
4.90245
4.83368
4.09605
117.417
1084.16
1021.27
113.805
5.86291
6.76982
7.21307
7.47894
7.65831
7.77989
7.85598
7.89332
7.89628
7.87163
7.81634
7.73546
7.63164
7.507
7.36354
7.20318
7.02744
6.83847
6.63913
6.43273
6.22298
6.01165
5.7985
5.58743
5.39512
5.22852
5.08005
4.95919
4.90979
4.96739
4.90532
117.629
1084.56
1021.29
113.813
6.04546
6.93918
7.37861
7.64505
7.82664
7.95062
8.02863
8.06694
8.06967
8.04316
7.98496
7.9
7.79085
7.65953
7.50849
7.34065
7.15897
6.96593
6.76422
6.55624
6.34292
6.12298
5.89609
5.66961
5.459
5.27124
5.10124
4.96924
4.93025
5.01488
4.11172
117.823
1084.9
1021.31
113.825
6.16794
7.04902
7.48087
7.74291
7.9207
8.04069
8.11427
8.14769
8.14559
8.11204
8.04877
7.95905
7.84524
7.70991
7.55587
7.38637
7.2043
7.01233
6.81329
6.60935
6.40133
6.18713
5.96237
5.73606
5.52308
5.32193
5.13095
4.97112
4.888
4.87196
4.11682
117.945
1085.11
1021.32
113.83
6.33664
7.2042
7.632
7.89412
8.0733
8.19479
8.26953
8.3035
8.30109
8.26597
8.19951
8.10539
7.98642
7.84533
7.68517
7.5092
7.32045
7.12244
6.91946
6.71476
6.50937
6.30084
6.084
5.86477
5.65164
5.4364
5.2271
5.0389
4.9008
4.84013
4.11906
118.001
1085.2
1021.34
113.838
6.43085
7.29518
7.72167
7.98317
8.16147
8.2816
8.35444
8.38593
8.38084
8.34172
8.27219
8.17512
8.05332
7.9096
7.74701
7.56908
7.37921
7.18141
6.97977
6.77648
6.57236
6.36569
6.15308
5.94105
5.73502
5.5231
5.30491
5.10791
4.95323
4.851
4.12573
118.146
1085.46
1021.35
113.845
6.59702
7.44513
7.866
8.12619
8.3045
8.42487
8.49772
8.52871
8.5225
8.48131
8.40823
8.3063
8.17855
8.02809
7.85891
7.67543
7.48145
7.28062
7.07651
6.87143
6.66576
6.45654
6.24082
6.02578
5.81422
5.59202
5.35726
5.14839
4.99425
4.88734
4.1313
118.261
1085.64
1021.36
113.852
6.68588
7.53116
7.95166
8.21212
8.39051
8.51055
8.58254
8.61204
8.6038
8.5599
8.4836
8.37827
8.24711
8.09386
7.92274
7.73845
7.54498
7.34639
7.14701
6.94929
6.75201
6.55088
6.34909
6.15425
5.9547
5.73165
5.48219
5.22757
5.03153
4.90493
4.13213
118.277
1085.66
1021.38
113.859
6.84427
7.67181
8.08599
8.3447
8.52279
8.64293
8.71497
8.74422
8.73521
8.68978
8.61078
8.5007
8.3631
8.20279
8.02447
7.83345
7.63435
7.43173
7.23023
7.03286
6.83919
6.64668
6.45957
6.28327
6.10533
5.90818
5.68283
5.42874
5.17634
4.98817
4.13292
118.305
1085.73
1021.39
113.866
6.92826
7.75185
8.16585
8.42564
8.60497
8.72619
8.79901
8.82859
8.81936
8.7734
8.69348
8.582
8.4418
8.27697
8.09333
7.89644
7.69194
7.48514
7.28049
7.07977
6.88323
6.68981
6.50433
6.32857
6.15162
5.96401
5.76148
5.53987
5.30109
5.06164
4.14087
118.46
1086.01
1021.41
113.873
7.06858
7.87648
8.28567
8.54493
8.72518
8.84786
8.92231
8.95358
8.94586
8.90148
8.82279
8.71172
8.57043
8.40174
8.20989
8.00189
7.78629
7.57043
7.36106
7.15932
6.96198
6.76462
6.56864
6.37433
6.17352
5.96897
5.76108
5.54428
5.32031
5.06448
4.14591
118.548
1086.13
1021.42
113.878
7.13817
7.94546
8.35684
8.61923
8.80274
8.92865
9.00628
9.04061
9.03576
8.99453
8.91899
8.81112
8.67293
8.50684
8.31613
8.10535
7.88094
7.65519
7.43907
7.23954
7.05637
6.88355
6.71153
6.53364
6.33124
6.09085
5.82525
5.56504
5.33394
5.07936
4.14633
118.556
1086.12
1021.43
113.882
7.25733
8.0538
8.46311
8.72686
8.91298
9.04213
9.12342
9.16177
9.16105
9.12498
9.05397
8.95038
8.81571
8.65172
8.46087
8.24662
8.01306
7.76727
7.52305
7.30006
7.10551
6.93949
6.80038
6.6684
6.52187
6.33812
6.10175
5.8109
5.48563
5.15549
4.14655
118.562
1086.15
1021.44
113.886
7.31767
8.11717
8.53073
8.79895
8.98958
9.12336
9.20949
9.25283
9.25722
9.22613
9.16036
9.06193
8.93212
8.77241
8.5848
8.37197
8.13684
7.88407
7.62158
7.36158
7.12594
6.93224
6.78164
6.65851
6.53784
6.40218
6.22958
5.98845
5.66323
5.25784
4.15095
118.66
1086.34
1021.45
113.889
7.42031
8.21457
8.62859
8.89936
9.09349
9.23151
9.32257
9.37146
9.38199
9.35712
9.29813
9.20641
9.08283
8.92838
8.74455
8.53355
8.29784
8.04135
7.77001
7.49058
7.21302
6.9572
6.75783
6.60837
6.48528
6.36208
6.21717
6.0225
5.73951
5.32101
4.15531
118.725
1086.42
1021.45
113.89
7.46729
8.27027
8.69107
8.96773
9.1677
9.31192
9.40969
9.46586
9.4841
9.46712
9.41659
9.33351
9.21854
9.07236
8.89609
8.69145
8.46055
8.20714
7.93722
7.65713
7.37299
7.09491
6.84983
6.66048
6.50625
6.36521
6.21821
6.02971
5.76695
5.36872
4.1558
118.73
1086.41
1021.46
113.891
7.54461
8.35053
8.77527
9.05628
9.26156
9.41209
9.5172
9.58169
9.60898
9.60189
9.56182
9.48946
9.38503
9.2486
9.08056
8.88187
8.65395
8.39999
8.12573
7.83827
7.5443
7.25235
6.9868
6.77474
6.6237
6.49257
6.33494
6.13351
5.85565
5.45338
4.15599
118.734
1086.42
1021.46
113.89
7.58696
8.40001
8.83215
9.12012
9.33235
9.4904
9.60383
9.67759
9.71493
9.7185
9.6898
9.62928
9.53682
9.41208
9.25481
9.06513
8.84355
8.59188
8.31396
8.01486
7.69894
7.37359
7.06632
6.81085
6.62855
6.52698
6.4338
6.27823
5.98952
5.53776
4.15952
118.806
1086.57
1021.46
113.887
7.64847
8.4696
8.90818
9.20152
9.41968
9.58471
9.70637
9.78968
9.83779
9.85315
9.83744
9.79089
9.71307
9.60317
9.46039
9.28426
9.07479
8.83319
8.56193
8.26326
7.93518
7.57562
7.20763
6.8795
6.63491
6.48996
6.40037
6.29006
6.04226
5.58917
4.16357
118.875
1086.65
1021.45
113.884
7.68229
8.51597
8.96437
9.26529
9.49063
9.66332
9.79351
9.88642
9.94507
9.97218
9.96927
9.9367
9.87367
9.77909
9.65174
9.49081
9.29627
9.06961
8.81392
8.53188
8.21972
7.86653
7.473
7.07596
6.73428
6.50454
6.39271
6.28488
6.06719
5.64205
4.9042
118.873
1086.62
1021.45
113.879
7.7428
8.58662
9.0428
9.34894
9.57935
9.75791
9.89509
9.99634
10.0646
10.1026
10.112
10.0938
10.0457
9.96675
9.85493
9.70872
9.52764
9.31301
9.06791
8.79594
8.49907
8.17026
7.79478
7.38876
7.00144
6.67059
6.44055
6.29635
6.10189
5.70711
4.97733
118.873
1086.62
1021.45
113.878
7.80199
8.65163
9.1151
9.4264
9.66177
9.84561
9.9887
10.0969
10.1734
10.221
10.2415
10.2353
10.2011
10.1363
10.038
9.90399
9.73303
9.52558
9.28475
9.01464
8.71642
8.38272
8.00155
7.59141
7.19461
6.83909
6.56438
6.36749
6.15198
5.74898
5.00854
118.901
1086.69
1021.45
113.878
7.90685
8.74813
9.21314
9.52734
9.76526
9.95161
10.0976
10.2098
10.2917
10.347
10.3771
10.3819
10.3623
10.3111
10.2269
10.1068
9.9487
9.75162
9.51693
9.24715
8.94145
8.58874
8.17346
7.71602
7.27425
6.89949
6.63206
6.43528
6.20314
5.78414
5.0292
118.967
1086.79
1021.46
113.883
8.02027
8.84159
9.30226
9.61658
9.85663
10.0462
10.1962
10.3133
10.4012
10.4641
10.5049
10.5236
10.5189
10.4882
10.426
10.3257
10.1861
10.005
9.78269
9.5217
9.22094
8.86746
8.44178
7.95467
7.4548
6.99956
6.67514
6.46568
6.23687
5.82153
5.07969
118.96
1086.76
1021.48
113.892
8.1554
8.95073
9.40235
9.71252
9.94994
10.1374
10.2859
10.4021
10.4909
10.5577
10.6068
10.6403
10.658
10.6574
10.6329
10.5682
10.4568
10.2949
10.0825
9.82118
9.5145
9.16181
8.74639
8.27805
7.78441
7.28305
6.86381
6.57921
6.32928
5.92856
5.20655
118.952
1086.73
1021.5
113.903
8.28017
9.04566
9.48428
9.78858
10.0227
10.2076
10.3537
10.4672
10.5536
10.6197
10.6699
10.7089
10.7382
10.7542
10.7486
10.7092
10.6281
10.501
10.325
10.0939
9.79997
9.4352
8.9938
8.50874
8.01889
7.52643
7.08032
6.73598
6.44242
6.01817
5.27954
118.964
1086.78
1021.52
113.917
8.40362
9.13652
9.55772
9.85228
10.0795
10.2584
10.3988
10.5067
10.5867
10.6455
10.6922
10.7351
10.7799
10.8199
10.8396
10.8293
10.7747
10.6715
10.5151
10.297
10.0073
9.63881
9.18376
8.64962
8.08546
7.5784
7.16335
6.82721
6.50931
6.06021
5.30079
119.061
1086.97
1021.55
113.929
8.493
9.19363
9.5989
9.88524
10.1076
10.2806
10.4137
10.5143
10.5904
10.647
10.6926
10.7357
10.7832
10.8362
10.8901
10.9191
10.9008
10.8308
10.704
10.5102
10.2405
9.88564
9.43431
8.87502
8.21752
7.60199
7.17648
6.8779
6.56809
6.11602
5.35869
119.104
1087.01
1021.57
113.939
8.55663
9.23082
9.62215
9.89993
10.1144
10.2841
10.4149
10.5104
10.5751
10.6199
10.6564
10.6971
10.7528
10.8232
10.8936
10.9486
10.9752
10.9533
10.8723
10.7307
10.5201
10.2294
9.8433
9.33521
8.66618
7.89348
7.27979
6.92007
6.62688
6.18617
5.44388
119.099
1086.98
1021.58
113.943
8.58587
9.24484
9.62783
9.90103
10.1128
10.2762
10.3976
10.4815
10.5369
10.5731
10.6003
10.6313
10.6803
10.7567
10.8507
10.9358
10.9844
10.9883
10.9487
10.8502
10.6928
10.4684
10.1629
9.74832
9.17413
8.43041
7.66221
7.10543
6.72468
6.2719
5.53592
119.1
1086.99
1021.59
113.944
8.60051
9.25144
9.62872
9.89764
10.1033
10.2624
10.3801
10.4622
10.514
10.5429
10.5591
10.5758
10.6071
10.6682
10.7629
10.8685
10.949
10.9813
10.9597
10.8816
10.7457
10.5484
10.2782
9.91049
9.40518
8.74423
7.99583
7.34551
6.86845
6.37315
5.61585
119.14
1087.09
1021.59
113.946
8.60958
9.25806
9.63176
9.89684
10.0986
10.2517
10.3635
10.4362
10.4744
10.4866
10.4846
10.4842
10.5001
10.5527
10.6465
10.7675
10.877
10.9401
10.9434
10.8849
10.76
10.5685
10.2987
9.92697
9.43124
8.81785
8.1416
7.51159
6.99316
6.46114
5.67917
119.221
1087.21
1021.6
113.947
8.61529
9.26713
9.63745
9.89845
10.0986
10.2508
10.3603
10.4296
10.4615
10.4628
10.4381
10.3994
10.3749
10.4014
10.485
10.6179
10.7588
10.8645
10.9074
10.8808
10.7817
10.6068
10.3439
9.97049
9.46909
8.86249
8.22542
7.6351
7.11092
6.56151
5.78054
119.244
1087.22
1021.6
113.945
8.61111
9.27021
9.6467
9.90811
10.1045
10.2536
10.3611
10.4293
10.4599
10.4602
10.4345
10.3895
10.3347
10.2806
10.2846
10.3867
10.5459
10.6995
10.8014
10.8303
10.7835
10.6539
10.4295
10.0868
9.6077
9.0047
8.35838
7.76743
7.24172
6.68937
5.91755
119.231
1087.18
1021.59
113.938
8.59827
9.26722
9.65162
9.92186
10.1271
10.2819
10.3932
10.4654
10.5022
10.5058
10.4788
10.4246
10.3509
10.2742
10.2133
10.1918
10.28
10.4356
10.5836
10.6752
10.691
10.6286
10.47
10.2029
9.7973
9.24393
8.59156
7.95318
7.3868
6.81164
6.03395
119.224
1087.16
1021.58
113.932
8.58887
9.26763
9.65795
9.93265
10.1436
10.3065
10.4274
10.5084
10.552
10.562
10.5424
10.4945
10.4187
10.3195
10.2149
10.1356
10.1064
10.1735
10.3223
10.4527
10.519
10.5096
10.4146
10.2076
9.88569
9.42381
8.82245
8.1644
7.55009
6.94608
6.15862
119.234
1087.19
1021.57
113.926
8.57928
9.26884
9.66858
9.94929
10.1652
10.3331
10.4607
10.5519
10.6093
10.6367
10.6372
10.61
10.5518
10.4592
10.3333
10.1909
10.0797
10.0401
10.0779
10.1875
10.2777
10.3098
10.2688
10.1338
9.87292
9.4695
8.94373
8.3212
7.68743
7.05461
6.24452
119.265
1087.24
1021.56
113.921
8.57791
9.27645
9.6834
9.96955
10.1902
10.363
10.4961
10.5936
10.658
10.6953
10.7103
10.7059
10.6773
10.6172
10.5194
10.3819
10.2159
10.062
9.98349
9.99355
10.0489
10.0904
10.0755
9.97397
9.76621
9.44106
8.97834
8.41442
7.80742
7.1773
6.37051
119.263
1087.22
1021.56
113.921
8.58497
9.29843
9.71206
10.0004
10.2229
10.3983
10.535
10.6379
10.7099
10.7576
10.7857
10.7948
10.7842
10.7465
10.6773
10.5725
10.4303
10.2593
10.0945
9.99656
9.9748
9.98548
9.97919
9.91367
9.74603
9.45834
9.0432
8.52111
7.93874
7.31395
6.5174
119.214
1087.11
1021.56
113.922
8.62256
9.33278
9.7483
10.0401
10.2652
10.4421
10.5803
10.6855
10.7612
10.8129
10.8458
10.8631
10.8628
10.8422
10.7948
10.7129
10.5922
10.4358
10.2607
10.1063
10.012
9.97455
9.95351
9.90508
9.78455
9.55302
9.18035
8.67743
8.09675
7.46174
6.65646
119.208
1087.11
1021.57
113.929
8.6576
9.3632
9.77794
10.0702
10.2959
10.4732
10.6109
10.7152
10.7908
10.8432
10.8806
10.91
10.9373
10.9597
10.96
10.9209
10.8293
10.6812
10.4887
10.2917
10.135
10.0312
9.97575
9.92575
9.83519
9.65415
9.3312
8.85201
8.261
7.60576
6.77788
119.225
1087.15
1021.59
113.937
8.7007
9.39232
9.80165
10.0918
10.3164
10.4926
10.6287
10.7301
10.8004
10.8494
10.8853
10.916
10.945
10.9712
10.9888
10.9862
10.9378
10.8323
10.668
10.4664
10.2695
10.1103
10.0053
9.9317
9.84386
9.69025
9.4129
8.96407
8.37803
7.72153
6.88165
119.284
1087.27
1021.6
113.942
8.72148
9.40049
9.8048
10.094
10.3185
10.4948
10.6308
10.7315
10.8
10.8427
10.8706
10.8929
10.919
10.9529
10.988
11.0063
10.9935
10.921
10.7845
10.5934
10.3771
10.1725
10.0156
9.90862
9.81497
9.68021
9.42585
9.02129
8.47142
7.84211
7.00984
119.34
1087.35
1021.62
113.95
8.73217
9.4035
9.80319
10.089
10.3114
10.4853
10.6175
10.7124
10.7754
10.8147
10.8388
10.8579
10.882
10.9178
10.9635
11.0056
11.0222
10.9979
10.9013
10.7351
10.5152
10.2752
10.0622
9.9071
9.77521
9.6291
9.40789
9.03831
8.53185
7.93147
7.1185
119.355
1087.36
1021.62
113.953
8.72971
9.39142
9.78673
10.0712
10.2924
10.4653
10.5971
10.6925
10.7557
10.7941
10.8154
10.8286
10.8443
10.8725
10.9176
10.9732
11.0219
11.0395
11.0092
10.9022
10.7195
10.4758
10.2094
9.96614
9.78498
9.62789
9.4093
9.07808
8.61412
8.05137
7.27688
119.329
1087.3
1021.63
113.955
8.71617
9.37483
9.76777
10.0502
10.2702
10.4427
10.5741
10.6685
10.7311
10.7687
10.7884
10.7977
10.8055
10.8222
10.8562
10.9087
10.9715
11.0277
11.0535
11.0275
10.9254
10.7411
10.4888
10.2058
9.92895
9.67885
9.43636
9.12617
8.69433
8.15136
7.39663
119.282
1087.2
1021.63
113.955
8.69529
9.35564
9.7496
10.0331
10.2537
10.4258
10.556
10.6481
10.7076
10.7414
10.7574
10.7637
10.7686
10.7797
10.8026
10.8404
10.892
10.9511
11.0047
11.0311
11.0076
10.9139
10.7391
10.4958
10.2092
9.90274
9.58256
9.22371
8.78274
8.25137
7.51541
119.28
1087.2
1021.63
113.956
8.67831
9.34147
9.7361
10.0184
10.2362
10.4045
10.5303
10.618
10.6738
10.7055
10.7209
10.7279
10.7341
10.7463
10.7674
10.7972
10.8342
10.8771
10.9233
10.9624
10.9751
10.9378
10.8395
10.6686
10.4253
10.1219
9.76707
9.3602
8.89126
8.35876
7.6197
119.29
1087.23
1021.64
113.957
8.65791
9.32392
9.7195
10.0021
10.2202
10.3885
10.5132
10.5984
10.6499
10.6756
10.6839
10.6843
10.6866
10.6983
10.7204
10.748
10.7751
10.8
10.8278
10.8569
10.8802
10.883
10.8321
10.7109
10.5211
10.2483
9.89426
9.46728
8.98116
8.44171
7.69156
119.333
1087.32
1021.64
113.959
8.63361
9.30869
9.7096
9.99501
10.2136
10.3804
10.5018
10.5817
10.6264
10.6449
10.6462
10.6416
10.6427
10.659
10.6913
10.7287
10.7579
10.7727
10.7734
10.7707
10.7706
10.7712
10.7529
10.686
10.5355
10.3076
9.97819
9.55761
9.07378
8.53691
7.77991
119.367
1087.36
1021.65
113.961
8.60728
9.29164
9.69791
9.98663
10.2082
10.3774
10.4989
10.5768
10.6139
10.6212
10.6108
10.5938
10.5859
10.6005
10.643
10.7001
10.7478
10.7694
10.7621
10.7353
10.7
10.6675
10.6417
10.6018
10.5097
10.3195
10.0327
9.6405
9.17156
8.63926
7.88383
119.385
1087.37
1021.65
113.963
8.57629
9.2733
9.68782
9.98214
10.207
10.3759
10.4971
10.5742
10.6121
10.6154
10.5901
10.5555
10.5311
10.5356
10.5814
10.6592
10.7381
10.7867
10.7944
10.7638
10.7083
10.647
10.5838
10.5198
10.4384
10.2974
10.0505
9.69695
9.25749
8.74363
8.00086
119.386
1087.36
1021.66
113.966
8.54347
9.25429
9.67799
9.97891
10.2086
10.3825
10.5062
10.5829
10.6162
10.6146
10.5863
10.5371
10.4861
10.4659
10.4984
10.5854
10.6952
10.7853
10.8293
10.8215
10.7673
10.6805
10.5912
10.5137
10.4218
10.2894
10.0698
9.74989
9.33864
8.84426
8.11764
119.377
1087.33
1021.66
113.969
8.50398
9.23234
9.66786
9.97845
10.2158
10.3964
10.526
10.6069
10.6408
10.6336
10.594
10.5346
10.465
10.4192
10.428
10.5065
10.6325
10.7574
10.842
10.8701
10.8419
10.763
10.6533
10.5344
10.425
10.291
10.0888
9.79368
9.40738
8.93424
8.22908
119.367
1087.31
1021.67
113.973
8.4714
9.21513
9.66057
9.97894
10.2237
10.411
10.5466
10.6325
10.6692
10.6608
10.613
10.5352
10.4457
10.3718
10.3563
10.422
10.5612
10.7173
10.8405
10.9067
10.9109
10.8568
10.752
10.6192
10.4773
10.3246
10.1258
9.845
9.47652
9.01961
8.33101
119.362
1087.29
1021.67
113.979
8.43821
9.19758
9.65355
9.98039
10.2339
10.4292
10.5727
10.6657
10.7073
10.6999
10.6474
10.5569
10.4446
10.3341
10.2839
10.3352
10.4846
10.6693
10.8278
10.9324
10.9719
10.945
10.8568
10.7246
10.5685
10.396
10.1855
9.90488
9.5421
9.09378
8.42059
119.362
1087.29
1021.69
113.986
8.40536
9.17815
9.6439
9.97948
10.2406
10.4447
10.5974
10.6996
10.7491
10.746
10.6907
10.5861
10.4445
10.2957
10.1851
10.206
10.36
10.5811
10.7865
10.9358
11.0184
11.0264
10.9632
10.8399
10.6761
10.4846
10.2553
9.96533
9.60407
9.16487
8.50209
119.368
1087.31
1021.7
113.993
8.36818
9.15205
9.62667
9.97062
10.2411
10.456
10.6208
10.7365
10.7997
10.8078
10.758
10.6491
10.4868
10.297
10.1359
10.0631
10.1881
10.4319
10.6918
10.8973
11.0175
11.0643
11.0412
10.9433
10.7855
10.5831
10.3356
10.0327
9.66866
9.22904
8.56321
119.386
1087.35
1021.71
113.997
8.31601
9.11567
9.6004
9.9529
10.2325
10.4582
10.638
10.772
10.8565
10.887
10.8585
10.7638
10.6001
10.3772
10.1352
9.97255
9.95959
10.1658
10.4633
10.7366
10.934
11.0354
11.044
10.9881
10.8594
10.6644
10.4099
10.0979
9.72893
9.28726
8.61811
119.406
1087.39
1021.72
114.001
8.26598
9.07907
9.57303
9.9331
10.2212
10.458
10.6517
10.8036
10.911
10.9684
10.9687
10.901
10.7578
10.5407
10.2742
10.0115
9.87307
9.93943
10.2076
10.5198
10.7715
10.9349
11.0083
10.9859
10.8917
10.7229
10.4767
10.1626
9.78998
9.34545
8.67527
119.42
1087.4
1021.72
114.004
8.20891
9.03581
9.53869
9.90568
10.201
10.4472
10.6542
10.8265
10.9596
11.0502
11.0871
11.0572
10.9467
10.7498
10.4792
10.1737
9.91029
9.81672
9.95187
10.2568
10.564
10.7862
10.9113
10.9447
10.8869
10.7447
10.5182
10.2178
9.85368
9.41233
8.74162
119.426
1087.4
1021.73
114.006
8.15672
8.99298
9.50247
9.87419
10.1751
10.4293
10.648
10.8363
10.9958
11.1218
11.2041
11.2252
11.1658
11.0113
10.757
10.4311
10.0911
9.84507
9.81393
10.0091
10.323
10.6171
10.8107
10.8935
10.8734
10.7555
10.5486
10.2599
9.90372
9.46681
8.7989
119.425
1087.39
1021.73
114.009
8.10997
8.95394
9.46856
9.84364
10.1478
10.4066
10.6337
10.837
11.0194
11.1787
11.307
11.3844
11.3875
11.2978
11.0953
10.7781
10.3873
10.0186
9.81466
9.8554
10.0861
10.3717
10.6304
10.7893
10.8298
10.7534
10.5728
10.3044
9.9587
9.52667
8.86146
119.432
1087.4
1021.74
114.015
8.07759
8.92346
9.4388
9.81464
10.1198
10.3806
10.6123
10.8251
11.0253
11.2182
11.3912
11.5246
11.5922
11.5724
11.4458
11.1955
10.813
10.3437
9.96138
9.83023
9.92442
10.1746
10.4383
10.6416
10.7421
10.7195
10.5712
10.323
9.99273
9.56942
8.90885
119.434
1087.4
1021.74
114.021
8.059
8.89513
9.40778
9.78158
10.0852
10.3454
10.5783
10.7979
11.0133
11.2317
11.4504
11.6357
11.7623
11.8059
11.7584
11.5987
11.314
10.895
10.3964
9.98507
9.89495
10.001
10.2366
10.4664
10.6169
10.6503
10.555
10.3391
10.0289
9.61874
8.9727
119.42
1087.35
1021.77
114.042
8.06672
8.89157
9.39175
9.75617
10.0519
10.3053
10.5335
10.7534
10.9821
11.2319
11.4916
11.739
11.918
12.0088
12.0031
11.9008
11.6883
11.3588
10.9259
10.4605
10.089
10.0145
10.1334
10.3284
10.4968
10.5744
10.5303
10.3587
10.0802
9.69136
9.06162
119.39
1087.3
1021.81
114.062
8.06619
8.86642
9.35218
9.70734
9.99448
10.2375
10.4557
10.6707
10.9073
11.1846
11.4929
11.786
12.0254
12.1594
12.1931
12.1314
11.9686
11.7068
11.3521
10.9237
10.5012
10.2379
10.2044
10.329
10.4601
10.5334
10.5102
10.366
10.1081
9.73477
9.12183
119.389
1087.3
1021.85
114.086
8.05431
8.82544
9.2927
9.63407
9.90702
10.136
10.3408
10.545
10.7811
11.0793
11.4335
11.7875
12.0737
12.2713
12.3513
12.3288
12.2105
11.9987
11.6933
11.3059
10.8911
10.5549
10.3933
10.3877
10.469
10.535
10.5126
10.3798
10.139
9.7858
9.19075
119.392
1087.32
1021.88
114.1
8.00897
8.76227
9.21594
9.54676
9.81038
10.0269
10.2125
10.3911
10.6023
10.8924
11.2746
11.6931
12.0571
12.3092
12.4486
12.4704
12.3894
12.2121
11.9402
11.5918
11.2203
10.8975
10.6817
10.5906
10.5863
10.5951
10.5513
10.4119
10.1728
9.82198
9.22571
119.43
1087.42
1021.9
114.109
7.94837
8.69195
9.13814
9.46374
9.71872
9.91956
10.08
10.2212
10.3824
10.6215
10.9848
11.4468
11.901
12.2535
12.4715
12.5612
12.533
12.3937
12.1433
11.801
11.4334
11.1263
10.923
10.813
10.76
10.7147
10.627
10.4626
10.2123
9.85881
9.26861
119.453
1087.43
1021.91
114.112
7.86046
8.61344
9.06242
9.38585
9.63427
9.82348
9.96452
10.0727
10.1797
10.3416
10.6299
11.0715
11.5904
12.0568
12.3962
12.595
12.6627
12.6042
12.4167
12.1035
11.7089
11.3383
11.0879
10.9616
10.8989
10.835
10.7229
10.5386
10.278
9.92494
9.35415
119.443
1087.39
1021.9
114.113
7.78314
8.54799
9.00118
9.32677
9.57313
9.75472
9.8812
9.96485
10.029
10.1193
10.313
10.6811
11.199
11.7454
12.2018
12.5239
12.7113
12.7745
12.7104
12.504
12.1666
11.7601
11.4026
11.1714
11.0445
10.9508
10.8281
10.6395
10.3746
10.0213
9.46353
119.418
1087.32
1021.9
114.115
7.72186
8.50586
8.9658
9.29497
9.54231
9.72148
9.83911
9.90375
9.92566
9.94564
10.0435
10.3244
10.8203
11.408
11.9415
12.3514
12.6339
12.801
12.8546
12.7822
12.5636
12.2234
11.8348
11.5047
11.2801
11.1239
10.9662
10.7596
10.4913
10.1417
9.59077
119.421
1087.33
1021.91
114.126
7.68996
8.48757
8.95559
9.28747
9.53405
9.71086
9.82461
9.87719
9.88282
9.86921
9.90876
10.1033
10.5432
11.1398
11.7199
12.1862
12.5283
12.7619
12.8825
12.8918
12.7753
12.5176
12.1667
11.8126
11.5313
11.3197
11.1232
10.8966
10.6152
10.2456
9.66159
119.461
1087.43
1021.94
114.142
7.67682
8.48472
8.9568
9.29344
9.54175
9.71701
9.82605
9.87372
9.86898
9.82493
9.77207
9.8629
10.2242
10.8218
11.4433
11.9631
12.3627
12.651
12.8308
12.8841
12.8054
12.607
12.3064
11.9849
11.7086
11.482
11.2643
11.0172
10.7156
10.3237
9.70456
119.524
1087.57
1021.97
114.158
7.65427
8.47188
8.95301
9.29819
9.55677
9.74093
9.85605
9.90178
9.88667
9.82219
9.74714
9.7352
9.95746
10.4806
11.1077
11.6924
12.158
12.4948
12.7115
12.7982
12.7676
12.6047
12.3628
12.0879
11.834
11.6026
11.3686
11.1057
10.7888
10.3769
9.72952
119.577
1087.67
1021.99
114.163
7.60401
8.44245
8.93872
9.29907
9.57387
9.7756
9.91139
9.97751
9.978
9.91335
9.8034
9.71677
9.73524
10.0202
10.5515
11.2043
11.7891
12.2199
12.5011
12.6421
12.6548
12.5512
12.3592
12.1335
11.9041
11.6795
11.4415
11.1688
10.8394
10.4101
9.7347
119.632
1087.76
1022
114.17
7.56373
8.41446
8.92331
9.29898
9.59149
9.81053
9.96209
10.0476
10.0613
10.0091
9.90243
9.77285
9.71464
9.8224
10.1941
10.7267
11.2887
11.7935
12.18
12.4164
12.4917
12.4494
12.3115
12.1259
11.9255
11.7157
11.4793
11.2047
10.8709
10.4316
9.73813
119.664
1087.79
1022.01
114.177
7.50273
8.37718
8.90342
9.29656
9.60762
9.8538
10.033
10.142
10.1756
10.1397
10.0376
9.89046
9.74937
9.73074
9.91371
10.3253
10.83
11.3118
11.7066
11.9966
12.179
12.2323
12.1884
12.0741
11.9152
11.7217
11.4978
11.2289
10.8986
10.4628
9.77353
119.665
1087.78
1022.01
114.179
7.43851
8.32924
8.8692
9.27777
9.60885
9.8804
10.0915
10.2386
10.307
10.2966
10.2114
10.0624
9.87978
9.75418
9.77469
10.0189
10.4466
10.9124
11.3178
11.6371
11.8648
11.9997
12.0386
11.9906
11.8762
11.7116
11.4969
11.2361
10.9136
10.4918
9.82178
119.659
1087.75
1022.01
114.182
7.36351
8.27308
8.82672
9.24881
9.59588
9.88542
10.1277
10.3124
10.4336
10.4738
10.4268
10.2922
10.1016
9.88837
9.76675
9.82738
10.1257
10.5498
10.9654
11.3136
11.5784
11.7558
11.845
11.853
11.7906
11.6634
11.4773
11.235
10.9317
10.5302
9.88851
119.639
1087.71
1022.02
114.185
7.28957
8.21408
8.77819
9.2107
9.57096
9.87801
10.1384
10.3599
10.5245
10.6254
10.6465
10.5743
10.402
10.1607
9.92318
9.80831
9.91014
10.2281
10.6272
11.001
11.305
11.5261
11.6614
11.7139
11.6916
11.5972
11.4382
11.2189
10.9343
10.5559
9.94949
119.621
1087.66
1022.02
114.186
7.20855
8.14705
8.72093
9.16283
9.53404
9.85498
10.1342
10.3732
10.5777
10.7279
10.8157
10.823
10.7324
10.5327
10.2419
9.97295
9.86314
9.98853
10.3079
10.6834
11.0242
11.2931
11.4778
11.5773
11.5953
11.5405
11.4105
11.2132
10.9469
10.5876
10.0079
119.606
1087.63
1022.02
114.191
7.1388
8.08555
8.66318
9.10786
9.48344
9.81238
10.1052
10.3659
10.5918
10.7856
10.926
11
10.9893
10.8779
10.6558
10.3367
10.0299
9.94656
10.0888
10.409
10.7597
11.066
11.2975
11.4432
11.5024
11.4816
11.3797
11.2052
10.958
10.6178
10.0641
119.588
1087.59
1022.03
114.195
7.06652
8.02205
8.60446
9.05237
9.43069
9.76274
10.0609
10.3323
10.5793
10.7995
10.9906
11.126
11.1872
11.1571
11.0226
10.7771
10.4398
10.1205
10.0679
10.2292
10.5418
10.8595
11.1217
11.3072
11.4081
11.4224
11.3552
11.2027
10.9726
10.6486
10.1171
119.572
1087.57
1022.04
114.204
7.00507
7.96385
8.54767
8.99652
9.37552
9.70831
10.008
10.2837
10.5407
10.7819
11.0015
11.1867
11.3083
11.3483
11.2941
11.1352
10.8704
10.5319
10.239
10.2205
10.3979
10.6913
10.973
11.1851
11.3133
11.3558
11.3149
11.1862
10.9761
10.6715
10.1642
119.57
1087.57
1022.05
114.213
6.93685
7.8994
8.48571
8.93652
9.31651
9.64911
9.94792
10.2235
10.4839
10.7363
10.9795
11.1985
11.372
11.4708
11.4828
11.4001
11.2155
10.9344
10.6106
10.371
10.3995
10.5765
10.8249
11.064
11.2339
11.3096
11.2909
11.179
10.9842
10.6926
10.2054
119.565
1087.56
1022.07
114.224
6.86961
7.83414
8.4224
8.87525
9.25633
9.5885
9.88535
10.1584
10.4181
10.6751
10.9331
11.18
11.3906
11.542
11.6134
11.5969
11.4867
11.2799
10.9953
10.7109
10.5441
10.5907
10.7825
10.9791
11.143
11.2412
11.2481
11.1613
10.9839
10.7119
10.2484
119.553
1087.55
1022.08
114.234
6.80023
7.76737
8.35855
8.81435
9.19701
9.52863
9.8226
10.0912
10.3472
10.6053
10.8741
11.1446
11.3914
11.5852
11.7037
11.7389
11.6863
11.5421
11.3125
11.0411
10.8261
10.7515
10.8211
10.9838
11.1327
11.2176
11.2225
11.1416
10.9786
10.7174
10.2673
119.551
1087.55
1022.1
114.248
6.73323
7.70218
8.29637
8.75587
9.14068
9.47148
9.76091
10.0216
10.2684
10.5207
10.7937
11.0836
11.3646
11.602
11.7709
11.856
11.8534
11.7614
11.5817
11.3381
11.1
10.9605
10.9483
11.0314
11.1422
11.221
11.2262
11.1462
10.9809
10.7252
10.2871
119.552
1087.55
1022.13
114.264
6.66224
7.63233
8.23052
8.69522
9.08348
9.41429
9.69885
9.94905
10.1804
10.4161
10.6792
10.9757
11.2848
11.5682
11.7906
11.9331
11.9877
11.9511
11.8234
11.618
11.3816
11.1957
11.1207
11.1373
11.1964
11.2433
11.2361
11.1533
10.991
10.7371
10.2994
119.544
1087.54
1022.15
114.28
6.58811
7.56255
8.16671
8.63839
9.03209
9.36524
9.64744
9.88883
10.104
10.3175
10.5584
10.8434
11.1619
11.4782
11.7504
11.9515
12.0694
12.0971
12.0315
11.8797
11.6704
11.4668
11.3392
11.3014
11.3126
11.3198
11.2827
11.1804
11.009
10.7554
10.3263
119.524
1087.5
1022.17
114.301
6.52423
7.49837
8.10722
8.58631
8.98702
9.32499
9.60748
9.84218
10.0425
10.2349
10.4536
10.7249
11.0469
11.3863
11.6985
11.9517
12.1284
12.2172
12.2133
12.1187
11.9492
11.7465
11.5733
11.4737
11.4335
11.4058
11.3476
11.2336
11.0558
10.797
10.3616
119.523
1087.5
1022.22
114.325
6.46794
7.43311
8.04357
8.53024
8.94048
9.28713
9.57355
9.80257
9.98367
10.1464
10.3286
10.5716
10.887
11.2419
11.5899
11.8966
12.1297
12.2789
12.3339
12.2947
12.1698
11.9914
11.8124
11.6797
11.599
11.5357
11.4494
11.3142
11.1173
10.8372
10.3676
119.53
1087.55
1022.25
114.343
6.38712
7.34357
7.95712
8.45374
8.87875
9.24282
9.54507
9.7824
9.95988
10.0893
10.2133
10.3943
10.6607
10.9986
11.3776
11.7464
12.0496
12.2512
12.3493
12.3656
12.2988
12.158
11.9914
11.8511
11.7484
11.6532
11.5331
11.3702
11.1517
10.8488
10.3554
119.576
1087.65
1022.28
114.359
6.29511
7.24388
7.85897
8.36513
8.80631
9.19136
9.51601
9.7724
9.95705
10.0816
10.1745
10.2728
10.4378
10.7088
11.0744
11.4753
11.8359
12.1128
12.2902
12.346
12.3164
12.2358
12.1107
11.9667
11.8309
11.7011
11.5554
11.3759
11.1469
10.831
10.3132
119.604
1087.69
1022.31
114.371
6.18135
7.12551
7.74352
8.2603
8.71941
9.12921
9.48378
9.77149
9.98588
10.1229
10.201
10.2547
10.3309
10.4723
10.7273
11.0738
11.4388
11.7652
12.0212
12.1873
12.2532
12.2235
12.126
12.0155
11.8916
11.7546
11.5939
11.3975
11.1499
10.8213
10.2885
119.613
1087.69
1022.32
114.38
6.05822
6.99553
7.61399
8.13912
8.61408
9.04727
9.433
9.75968
10.0153
10.1929
10.298
10.3454
10.3659
10.4047
10.5137
10.7376
11.0559
11.3786
11.6525
11.8634
12.0082
12.0811
12.0881
12.0258
11.937
11.8109
11.6423
11.4275
11.1578
10.8049
10.239
119.624
1087.7
1022.33
114.385
5.92195
6.85335
7.47139
8.00307
8.49073
8.94353
9.35681
9.71961
10.0191
10.2519
10.4119
10.503
10.5352
10.5383
10.5477
10.6251
10.7886
11.0553
11.3514
11.6095
11.7968
11.9115
11.9704
11.9745
11.9114
11.7971
11.6323
11.4157
11.1441
10.7886
10.2222
119.622
1087.69
1022.33
114.387
5.77996
6.70785
7.32461
7.86002
8.35608
8.82354
9.26015
9.65665
10.0007
10.2844
10.5036
10.6575
10.7469
10.7781
10.7739
10.7657
10.8047
10.9176
11.0728
11.285
11.5148
11.7086
11.8351
11.8831
11.8548
11.759
11.605
11.3985
11.1378
10.7876
10.2242
119.618
1087.67
1022.33
114.392
5.65035
6.57645
7.19164
7.72811
8.22792
8.70485
9.15925
9.5828
9.96244
10.2895