/*--------------------------------*- C++ -*----------------------------------*\
  =========                 |
  \\      /  F ield         | OpenFOAM: The Open Source CFD Toolbox
   \\    /   O peration     | Website:  https://openfoam.org
    \\  /    A nd           | Version:  11
     \\/     M anipulation  |
\*---------------------------------------------------------------------------*/
FoamFile
{
    format      ascii;
    class       surfaceScalarField;
    location    "700";
    object      phi;
}
// * * * * * * * * * * * * * * * * * * * * * * * * * * * * * * * * * * * * * //

dimensions      [1 0 -1 0 0 0 0];

internalField   nonuniform List<scalar> 
228225
(
-2.69078e-06
1.29218e-06
1.39851e-06
-6.3026e-06
9.43312e-07
2.66843e-06
-8.63272e-06
-5.75625e-07
2.90568e-06
-9.35083e-06
-2.17806e-06
2.89609e-06
-8.36627e-06
-3.80219e-06
2.81756e-06
-5.98199e-06
-5.09886e-06
2.71451e-06
-2.60322e-06
-6.00306e-06
2.62422e-06
1.35378e-06
-6.53766e-06
2.5806e-06
5.61387e-06
-6.83544e-06
2.5753e-06
1.00162e-05
-6.96349e-06
2.56109e-06
1.44224e-05
-6.95242e-06
2.54615e-06
1.87782e-05
-6.88839e-06
2.5325e-06
2.29741e-05
-6.71479e-06
2.51884e-06
2.69707e-05
-6.49866e-06
2.50207e-06
3.07129e-05
-6.22861e-06
2.48636e-06
3.41551e-05
-5.91351e-06
2.47126e-06
3.72571e-05
-5.55825e-06
2.45625e-06
3.99836e-05
-5.16809e-06
2.44148e-06
4.23532e-05
-4.79336e-06
2.42378e-06
4.43097e-05
-4.35893e-06
2.4024e-06
4.58274e-05
-3.90762e-06
2.38985e-06
4.6739e-05
-3.30432e-06
2.39268e-06
4.71775e-05
-2.82187e-06
2.3834e-06
4.70443e-05
-2.23777e-06
2.37093e-06
4.63006e-05
-1.62492e-06
2.36857e-06
4.49568e-05
-1.02718e-06
2.37095e-06
4.29823e-05
-4.0978e-07
2.38419e-06
4.02109e-05
3.62107e-07
2.40925e-06
3.68772e-05
8.90266e-07
2.44344e-06
3.27696e-05
1.61054e-06
2.49698e-06
2.78222e-05
2.39872e-06
2.54862e-06
2.19053e-05
3.25519e-06
2.66163e-06
1.49821e-05
4.1346e-06
2.78852e-06
6.97506e-06
5.21724e-06
2.78971e-06
5.29004e-06
1.68502e-06
2.99659e-07
1.22444e-07
8.69912e-07
9.84075e-07
-1.45331e-06
1.71202e-06
2.58224e-06
-4.06224e-06
1.88829e-06
5.04887e-06
-6.50493e-06
1.8601e-06
7.86929e-06
-8.40959e-06
1.78686e-06
1.0741e-05
-9.62876e-06
1.65811e-06
1.35295e-05
-1.03226e-05
1.53095e-06
1.61691e-05
-1.0654e-05
1.4766e-06
1.87095e-05
-1.07744e-05
1.39852e-06
2.11275e-05
-1.07129e-05
1.33131e-06
2.3394e-05
-1.0489e-05
1.26993e-06
2.54827e-05
-1.0218e-05
1.24088e-06
2.74069e-05
-9.85787e-06
1.21878e-06
2.91324e-05
-9.42244e-06
1.19819e-06
3.06528e-05
-8.93194e-06
1.18287e-06
3.1962e-05
-8.39448e-06
1.17175e-06
3.30531e-05
-7.81402e-06
1.16462e-06
3.39011e-05
-7.17786e-06
1.1617e-06
3.445e-05
-6.49748e-06
1.15514e-06
3.47448e-05
-5.8063e-06
1.15255e-06
3.47721e-05
-5.09314e-06
1.1582e-06
3.46363e-05
-4.34129e-06
1.17272e-06
3.41683e-05
-3.54798e-06
1.19403e-06
3.34327e-05
-2.72575e-06
1.22352e-06
3.24308e-05
-1.88738e-06
1.26427e-06
3.11358e-05
-1.03389e-06
1.30162e-06
2.93758e-05
-1.94433e-08
1.3696e-06
2.73152e-05
9.50698e-07
1.47196e-06
2.48434e-05
1.78699e-06
1.57505e-06
2.18773e-05
2.86225e-06
1.71429e-06
1.83181e-05
4.09376e-06
1.86409e-06
1.40393e-05
5.51181e-06
2.0221e-06
8.98129e-06
7.01101e-06
2.1815e-06
3.44457e-06
8.60444e-06
2.14938e-06
7.49165e-06
1.24296e-06
5.59272e-07
-1.01964e-06
5.82622e-07
2.63921e-06
-4.56179e-06
1.02835e-06
5.58704e-06
-8.10231e-06
1.0921e-06
8.51486e-06
-1.04854e-05
1.05251e-06
1.09716e-05
-1.18128e-05
9.46357e-07
1.28459e-05
-1.24149e-05
9.11727e-07
1.42786e-05
-1.26329e-05
8.77571e-07
1.5461e-05
-1.26608e-05
8.24365e-07
1.64557e-05
-1.25765e-05
8.07376e-07
1.73065e-05
-1.23643e-05
8.00548e-07
1.80842e-05
-1.20606e-05
7.9391e-07
1.87577e-05
-1.16787e-05
7.8727e-07
1.93524e-05
-1.12332e-05
7.80621e-07
1.98851e-05
-1.07292e-05
7.7401e-07
2.03564e-05
-1.01707e-05
7.67449e-07
2.07629e-05
-9.56194e-06
7.60858e-07
2.11004e-05
-8.90632e-06
7.54757e-07
2.13672e-05
-8.19652e-06
7.5184e-07
2.15008e-05
-7.39188e-06
7.60663e-07
2.14731e-05
-6.55059e-06
7.72019e-07
2.12896e-05
-5.69197e-06
7.82255e-07
2.09652e-05
-4.81123e-06
7.94225e-07
2.05034e-05
-3.89775e-06
8.11477e-07
1.99069e-05
-2.96991e-06
8.40594e-07
1.91989e-05
-2.05777e-06
8.78314e-07
1.83039e-05
-1.06712e-06
9.28231e-07
1.71284e-05
1.59465e-07
9.96483e-07
1.60594e-05
9.44975e-07
1.07461e-06
1.46196e-05
2.0374e-06
1.18929e-06
1.28473e-05
3.29703e-06
1.33748e-06
1.06557e-05
4.77309e-06
1.5121e-06
7.95966e-06
6.51514e-06
1.69263e-06
4.7377e-06
8.39864e-06
1.8342e-06
1.48178e-06
1.00935e-05
1.76671e-06
8.05738e-06
9.16049e-07
6.71557e-07
-2.07026e-06
3.78883e-07
2.41903e-06
-6.89618e-06
5.86762e-07
4.36197e-06
-1.06266e-05
5.8121e-07
5.9303e-06
-1.25975e-05
5.4371e-07
7.0721e-06
-1.34744e-05
5.19753e-07
7.99495e-06
-1.38474e-05
5.09691e-07
8.81115e-06
-1.39731e-05
5.23941e-07
9.58696e-06
-1.39446e-05
5.07908e-07
1.03108e-05
-1.37975e-05
4.97135e-07
1.10052e-05
-1.35471e-05
4.88337e-07
1.16708e-05
-1.32071e-05
4.80876e-07
1.23047e-05
-1.2787e-05
4.74383e-07
1.28944e-05
-1.22913e-05
4.68336e-07
1.3427e-05
-1.17244e-05
4.62457e-07
1.38883e-05
-1.10889e-05
4.56849e-07
1.42623e-05
-1.03876e-05
4.51604e-07
1.45334e-05
-9.62417e-06
4.46723e-07
1.46986e-05
-8.80369e-06
4.41927e-07
1.47996e-05
-7.93023e-06
4.37249e-07
1.48249e-05
-7.01063e-06
4.34723e-07
1.47419e-05
-6.05017e-06
4.41115e-07
1.45334e-05
-5.0586e-06
4.55826e-07
1.42074e-05
-4.0514e-06
4.7962e-07
1.37793e-05
-3.05593e-06
5.14093e-07
1.32632e-05
-2.10235e-06
5.6061e-07
1.26141e-05
-1.04639e-06
6.282e-07
1.18606e-05
1.87778e-07
7.2512e-07
1.09706e-05
1.01318e-06
8.21728e-07
9.92429e-06
2.13434e-06
9.49322e-07
8.68324e-06
3.44154e-06
1.09645e-06
7.19251e-06
5.01527e-06
1.24847e-06
5.30584e-06
6.9926e-06
1.40912e-06
2.99112e-06
9.1721e-06
1.54114e-06
7.39201e-07
1.09052e-05
1.44009e-06
8.14051e-06
6.56063e-07
6.25297e-07
-2.95427e-06
2.58557e-07
1.97432e-06
-8.62067e-06
3.75343e-07
3.3122e-06
-1.23366e-05
3.72081e-07
4.44232e-06
-1.40831e-05
3.55436e-07
5.44549e-06
-1.48212e-05
3.43534e-07
6.37497e-06
-1.51103e-05
3.33354e-07
7.24834e-06
-1.51606e-05
3.14159e-07
8.07442e-06
-1.50743e-05
3.03621e-07
8.84085e-06
-1.4859e-05
2.94973e-07
9.54611e-06
-1.45399e-05
2.87542e-07
1.01872e-05
-1.41298e-05
2.8156e-07
1.0759e-05
-1.36362e-05
2.77438e-07
1.12549e-05
-1.30633e-05
2.76117e-07
1.16699e-05
-1.24144e-05
2.74925e-07
1.1999e-05
-1.16924e-05
2.74362e-07
1.22372e-05
-1.09007e-05
2.7488e-07
1.23795e-05
-1.00434e-05
2.76871e-07
1.24201e-05
-9.12474e-06
2.80449e-07
1.23468e-05
-8.14229e-06
2.85327e-07
1.21743e-05
-7.12391e-06
2.85662e-07
1.19341e-05
-6.10028e-06
2.90289e-07
1.16418e-05
-5.06923e-06
3.02836e-07
1.13047e-05
-4.03904e-06
3.24657e-07
1.09154e-05
-3.025e-06
3.58312e-07
1.04365e-05
-2.03222e-06
4.08689e-07
9.86777e-06
-9.51528e-07
4.73795e-07
9.27265e-06
2.31453e-07
5.51358e-07
8.59302e-06
1.05802e-06
6.34707e-07
7.82532e-06
2.15352e-06
7.48409e-07
6.91362e-06
3.46887e-06
8.84252e-07
5.7375e-06
5.15612e-06
1.03515e-06
4.18393e-06
7.35522e-06
1.19085e-06
2.29437e-06
9.74946e-06
1.31206e-06
5.50189e-07
1.14492e-05
1.20003e-06
8.16917e-06
5.21531e-07
5.2054e-07
-3.63707e-06
1.62123e-07
1.48295e-06
-9.79673e-06
2.13557e-07
2.41942e-06
-1.34754e-05
2.02221e-07
3.2027e-06
-1.50577e-05
1.91273e-07
3.87387e-06
-1.5681e-05
1.88618e-07
4.4811e-06
-1.59087e-05
1.91156e-07
5.05013e-06
-1.59258e-05
1.96084e-07
5.58834e-06
-1.58058e-05
1.93303e-07
6.09991e-06
-1.55567e-05
1.86121e-07
6.58506e-06
-1.52015e-05
1.76446e-07
7.04089e-06
-1.47509e-05
1.6522e-07
7.46337e-06
-1.42113e-05
1.52561e-07
7.84592e-06
-1.35872e-05
1.4129e-07
8.18205e-06
-1.28821e-05
1.31636e-07
8.46557e-06
-1.20997e-05
1.23719e-07
8.69204e-06
-1.1245e-05
1.17702e-07
8.85959e-06
-1.03248e-05
1.13806e-07
8.96936e-06
-9.3473e-06
1.12748e-07
9.03208e-06
-8.32179e-06
1.16724e-07
9.03809e-06
-7.26348e-06
1.3351e-07
8.98528e-06
-6.19983e-06
1.52308e-07
8.87862e-06
-5.13615e-06
1.73528e-07
8.72104e-06
-4.08025e-06
1.98724e-07
8.5066e-06
-3.04047e-06
2.29846e-07
8.21638e-06
-2.01146e-06
2.69377e-07
7.8628e-06
-9.18256e-07
3.20242e-07
7.47405e-06
2.33368e-07
3.8676e-07
7.00669e-06
1.06349e-06
4.61812e-07
6.44265e-06
2.15127e-06
5.66205e-07
5.71876e-06
3.49696e-06
6.95716e-07
4.74117e-06
5.2869e-06
8.46729e-07
3.42862e-06
7.66599e-06
1.00171e-06
1.84458e-06
1.02202e-05
1.11321e-06
4.35468e-07
1.1854e-05
1.00415e-06
8.18042e-06
4.24207e-07
3.7094e-07
-4.10931e-06
1.01186e-07
1.08528e-06
-1.06424e-05
1.31262e-07
1.81924e-06
-1.43373e-05
1.27906e-07
2.50611e-06
-1.58636e-05
1.18978e-07
3.16276e-06
-1.64481e-05
1.10477e-07
3.79852e-06
-1.66474e-05
1.02877e-07
4.41264e-06
-1.66362e-05
9.62763e-08
4.99748e-06
-1.64816e-05
9.0872e-08
5.55278e-06
-1.6198e-05
8.60135e-08
6.07525e-06
-1.58055e-05
8.14596e-08
6.55932e-06
-1.53122e-05
7.72072e-08
6.99903e-06
-1.47242e-05
7.31305e-08
7.3908e-06
-1.40467e-05
6.76657e-08
7.72884e-06
-1.32836e-05
6.33738e-08
8.00715e-06
-1.24383e-05
6.02683e-08
8.22138e-06
-1.15177e-05
5.84532e-08
8.36986e-06
-1.05312e-05
5.79004e-08
8.45338e-06
-9.48914e-06
5.82762e-08
8.48348e-06
-8.40897e-06
5.70356e-08
8.46684e-06
-7.30829e-06
6.14006e-08
8.39177e-06
-6.19789e-06
7.30666e-08
8.25929e-06
-5.09122e-06
8.74977e-08
8.07296e-06
-3.99982e-06
1.05831e-07
7.82907e-06
-2.92603e-06
1.29376e-07
7.51902e-06
-1.86079e-06
1.59291e-07
7.16963e-06
-7.71202e-07
2.02251e-07
6.8254e-06
3.18283e-07
2.59245e-07
6.43547e-06
1.12863e-06
3.24698e-07
5.95914e-06
2.21374e-06
4.13746e-07
5.32316e-06
3.60785e-06
5.2497e-07
4.42284e-06
5.52387e-06
6.63228e-07
3.18126e-06
8.08945e-06
8.18017e-07
1.72129e-06
1.07449e-05
9.35196e-07
4.45724e-07
1.22845e-05
8.44914e-07
8.28087e-06
3.45281e-07
3.24781e-07
-4.49171e-06
5.75134e-08
9.01495e-07
-1.12908e-05
7.15568e-08
1.4769e-06
-1.49826e-05
6.98214e-08
1.99751e-06
-1.64514e-05
6.70845e-08
2.48642e-06
-1.70013e-05
6.42197e-08
2.9586e-06
-1.71801e-05
6.04394e-08
3.42089e-06
-1.7154e-05
5.54866e-08
3.86708e-06
-1.69771e-05
4.93128e-08
4.29645e-06
-1.66696e-05
4.21514e-08
4.70522e-06
-1.62487e-05
3.44257e-08
5.08996e-06
-1.57235e-05
2.65309e-08
5.44721e-06
-1.51002e-05
1.88118e-08
5.77393e-06
-1.43839e-05
1.04893e-08
6.06727e-06
-1.35791e-05
2.16058e-09
6.32469e-06
-1.26901e-05
-5.60296e-09
6.54332e-06
-1.17242e-05
-1.21619e-08
6.71966e-06
-1.06909e-05
-1.67255e-08
6.85152e-06
-9.60286e-06
-1.81828e-08
6.9314e-06
-8.47452e-06
-1.43712e-08
6.95641e-06
-7.32175e-06
-1.15941e-08
6.92541e-06
-6.15683e-06
-1.00987e-08
6.85226e-06
-5.01417e-06
-3.95003e-09
6.74404e-06
-3.89976e-06
8.10881e-09
6.59771e-06
-2.8069e-06
2.71392e-08
6.3997e-06
-1.71767e-06
5.48403e-08
6.16644e-06
-6.31232e-07
9.32332e-08
5.92385e-06
4.16362e-07
1.4447e-07
5.62674e-06
1.21965e-06
2.06032e-07
5.23389e-06
2.31316e-06
2.93368e-07
4.67634e-06
3.76293e-06
4.02407e-07
3.84582e-06
5.82376e-06
5.30571e-07
2.68309e-06
8.58899e-06
6.63136e-07
1.36928e-06
1.12991e-05
7.59468e-07
2.92388e-07
1.26822e-05
6.79149e-07
8.31065e-06
2.62598e-07
2.28103e-07
-4.75738e-06
3.74777e-08
6.79716e-07
-1.17939e-05
5.15105e-08
1.16496e-06
-1.55224e-05
5.45275e-08
1.64021e-06
-1.69794e-05
5.28199e-08
2.1071e-06
-1.75181e-05
4.98749e-08
2.56658e-06
-1.76858e-05
4.62927e-08
3.01634e-06
-1.76459e-05
4.21596e-08
3.44884e-06
-1.74471e-05
3.74996e-08
3.86171e-06
-1.71148e-05
3.23958e-08
4.25209e-06
-1.66658e-05
2.66945e-08
4.61749e-06
-1.61093e-05
2.03864e-08
4.9551e-06
-1.54515e-05
1.36244e-08
5.26103e-06
-1.46965e-05
6.58095e-09
5.53221e-06
-1.38497e-05
-6.32271e-10
5.76696e-06
-1.2917e-05
-7.93322e-09
5.96327e-06
-1.19053e-05
-1.5219e-08
6.11851e-06
-1.08239e-05
-2.22383e-08
6.23078e-06
-9.68666e-06
-2.85116e-08
6.30492e-06
-8.51494e-06
-3.37464e-08
6.34378e-06
-7.32377e-06
-3.68855e-08
6.347e-06
-6.12162e-06
-3.8462e-08
6.30641e-06
-4.93753e-06
-3.61006e-08
6.21907e-06
-3.78314e-06
-2.93333e-08
6.08799e-06
-2.65888e-06
-1.69983e-08
5.90786e-06
-1.54006e-06
2.45561e-09
5.68653e-06
-4.41036e-07
3.10734e-08
5.53018e-06
5.0168e-07
7.0975e-08
5.22293e-06
1.40487e-06
1.21957e-07
4.78715e-06
2.55311e-06
1.95743e-07
4.16651e-06
4.08729e-06
2.96187e-07
3.31104e-06
6.26117e-06
4.17971e-07
2.25395e-06
9.10068e-06
5.45323e-07
1.14035e-06
1.17831e-05
6.29591e-07
2.63618e-07
1.30035e-05
5.55333e-07
8.36841e-06
2.05858e-07
2.12569e-07
-4.99301e-06
2.29906e-08
5.99086e-07
-1.2215e-05
3.4486e-08
9.97894e-07
-1.59606e-05
3.93938e-08
1.37512e-06
-1.73964e-05
3.96719e-08
1.74065e-06
-1.79215e-05
3.78424e-08
2.09962e-06
-1.80796e-05
3.47355e-08
2.45231e-06
-1.80293e-05
3.06421e-08
2.79758e-06
-1.78181e-05
2.5653e-08
3.13471e-06
-1.7472e-05
1.99944e-08
3.46224e-06
-1.70071e-05
1.36813e-08
3.77839e-06
-1.64322e-05
6.6869e-09
4.08134e-06
-1.57537e-05
-8.0302e-10
4.36929e-06
-1.49759e-05
-8.55797e-09
4.63939e-06
-1.41034e-05
-1.63824e-08
4.88897e-06
-1.31424e-05
-2.41254e-08
5.11575e-06
-1.21005e-05
-3.16304e-08
5.31695e-06
-1.09865e-05
-3.86768e-08
5.48792e-06
-9.81276e-06
-4.4898e-08
5.62007e-06
-8.59754e-06
-4.95751e-08
5.70546e-06
-7.35548e-06
-5.36986e-08
5.74686e-06
-6.10586e-06
-5.7199e-08
5.74226e-06
-4.87352e-06
-5.94392e-08
5.69041e-06
-3.6728e-06
-5.85141e-08
5.59035e-06
-2.50595e-06
-5.28985e-08
5.43246e-06
-1.34141e-06
-4.08008e-08
5.21939e-06
-2.0761e-07
-2.03763e-08
5.06192e-06
6.50406e-07
8.71395e-09
4.74823e-06
1.66537e-06
5.31562e-08
4.31601e-06
2.86788e-06
1.17419e-07
3.73824e-06
4.46229e-06
2.02741e-07
2.99248e-06
6.69338e-06
3.13527e-07
2.07653e-06
9.58054e-06
4.36072e-07
1.0947e-06
1.22434e-05
5.21426e-07
2.8614e-07
1.33456e-05
4.6636e-07
8.4842e-06
1.70345e-07
1.5781e-07
-5.17057e-06
1.96886e-08
4.95242e-07
-1.25872e-05
3.47506e-08
8.72468e-07
-1.63807e-05
4.28441e-08
1.25012e-06
-1.78182e-05
4.41811e-08
1.62484e-06
-1.83388e-05
4.25841e-08
1.99593e-06
-1.84902e-05
3.95712e-08
2.36138e-06
-1.84304e-05
3.56981e-08
2.71813e-06
-1.82061e-05
3.127e-08
3.06322e-06
-1.78436e-05
2.64747e-08
3.39366e-06
-1.73588e-05
2.12356e-08
3.70668e-06
-1.67607e-05
1.5453e-08
3.99974e-06
-1.60559e-05
9.20487e-09
4.27097e-06
-1.52497e-05
2.58864e-09
4.52006e-06
-1.43482e-05
-4.34223e-09
4.75054e-06
-1.33614e-05
-1.15618e-08
4.96075e-06
-1.22916e-05
-1.9088e-08
5.14748e-06
-1.11463e-05
-2.69524e-08
5.30438e-06
-9.93456e-06
-3.51151e-08
5.42317e-06
-8.67298e-06
-4.3389e-08
5.50468e-06
-7.38543e-06
-5.15798e-08
5.55635e-06
-6.09926e-06
-5.82996e-08
5.57971e-06
-4.83364e-06
-6.32606e-08
5.57095e-06
-3.59801e-06
-6.60685e-08
5.52298e-06
-2.39233e-06
-6.56884e-08
5.42876e-06
-1.18654e-06
-6.06821e-08
5.28987e-06
-1.94427e-08
-4.93149e-08
5.09788e-06
8.72359e-07
-3.00025e-08
4.82333e-06
1.93792e-06
1.94632e-09
4.43302e-06
3.20733e-06
5.08154e-08
3.88592e-06
4.88959e-06
1.19738e-07
3.12462e-06
7.2415e-06
2.13141e-07
2.15396e-06
1.02268e-05
3.24325e-07
1.12708e-06
1.28589e-05
4.11341e-07
2.89957e-07
1.37988e-05
3.83907e-07
8.63467e-06
1.39483e-07
1.8057e-07
-5.36445e-06
1.32647e-08
5.15968e-07
-1.295e-05
2.74097e-08
8.71596e-07
-1.67731e-05
3.66904e-08
1.21744e-06
-1.82034e-05
3.93015e-08
1.55668e-06
-1.87164e-05
3.83984e-08
1.89109e-06
-1.88603e-05
3.55875e-08
2.22009e-06
-1.8791e-05
3.15499e-08
2.54171e-06
-1.85544e-05
2.66263e-08
2.85379e-06
-1.81768e-05
2.11674e-08
3.1545e-06
-1.76747e-05
1.51935e-08
3.44215e-06
-1.7057e-05
8.69276e-09
3.71514e-06
-1.63308e-05
1.82979e-09
3.97222e-06
-1.55016e-05
-5.19733e-09
4.2111e-06
-1.45749e-05
-1.22069e-08
4.42397e-06
-1.35552e-05
-1.90724e-08
4.6085e-06
-1.24503e-05
-2.58744e-08
4.76415e-06
-1.12693e-05
-3.26379e-08
4.89321e-06
-1.00242e-05
-3.94168e-08
5.00044e-06
-8.73408e-06
-4.6139e-08
5.08988e-06
-7.42181e-06
-5.30787e-08
5.15582e-06
-6.10526e-06
-5.99615e-08
5.1843e-06
-4.79608e-06
-6.60585e-08
5.1713e-06
-3.51412e-06
-7.09063e-08
5.10667e-06
-2.25404e-06
-7.36826e-08
4.9907e-06
-9.97435e-07
-7.31439e-08
4.83841e-06
2.00251e-07
-6.74227e-08
4.63539e-06
1.1298e-06
-5.44308e-08
4.36565e-06
2.23832e-06
-3.06857e-08
3.98622e-06
3.57868e-06
8.06393e-09
3.42922e-06
5.38273e-06
6.38258e-08
2.64046e-06
7.89187e-06
1.38379e-07
1.68075e-06
1.09614e-05
2.25079e-07
7.70346e-07
1.34782e-05
2.91115e-07
1.22824e-07
1.41739e-05
2.72437e-07
8.66815e-06
8.93481e-08
1.57439e-07
-5.53632e-06
1.43947e-08
4.87077e-07
-1.3313e-05
3.32722e-08
8.45257e-07
-1.71759e-05
4.46305e-08
1.19902e-06
-1.86044e-05
4.727e-08
1.54766e-06
-1.91112e-05
4.61428e-08
1.8909e-06
-1.92467e-05
4.31951e-08
2.22692e-06
-1.91662e-05
3.91612e-08
2.55283e-06
-1.89147e-05
3.44046e-08
2.86601e-06
-1.85192e-05
2.9212e-08
3.16405e-06
-1.79963e-05
2.35718e-08
3.44474e-06
-1.73551e-05
1.74186e-08
3.70604e-06
-1.66029e-05
1.08483e-08
3.94615e-06
-1.57457e-05
3.96513e-09
4.16152e-06
-1.47871e-05
-3.19017e-09
4.34594e-06
-1.37289e-05
-1.06793e-08
4.49873e-06
-1.25847e-05
-1.83957e-08
4.62127e-06
-1.13656e-05
-2.62791e-08
4.71834e-06
-1.00871e-05
-3.42291e-08
4.79527e-06
-8.7691e-06
-4.19251e-08
4.8498e-06
-7.42692e-06
-4.94334e-08
4.87532e-06
-6.07417e-06
-5.66348e-08
4.86853e-06
-4.72617e-06
-6.31347e-08
4.81865e-06
-3.3957e-06
-6.85668e-08
4.6937e-06
-2.05664e-06
-7.24673e-08
4.51153e-06
-7.41429e-07
-7.38561e-08
4.3507e-06
4.32188e-07
-7.11223e-08
4.13563e-06
1.40689e-06
-6.20407e-08
3.81214e-06
2.60447e-06
-4.26853e-08
3.37193e-06
4.02667e-06
-7.81438e-09
2.81793e-06
5.89139e-06
4.53128e-08
2.15602e-06
8.43854e-06
1.15197e-07
1.42622e-06
1.15021e-05
1.89126e-07
7.29845e-07
1.39366e-05
2.37946e-07
1.9753e-07
1.44909e-05
2.15195e-07
8.7975e-06
6.81775e-08
1.82867e-07
-5.73068e-06
1.14738e-08
5.09728e-07
-1.36721e-05
3.22616e-08
8.43408e-07
-1.75542e-05
4.46254e-08
1.16449e-06
-1.89729e-05
4.74056e-08
1.47826e-06
-1.94713e-05
4.62702e-08
1.78602e-06
-1.95977e-05
4.32658e-08
2.08626e-06
-1.95056e-05
3.91317e-08
2.37652e-06
-1.92391e-05
3.4171e-08
2.65446e-06
-1.88258e-05
2.86807e-08
2.91803e-06
-1.82825e-05
2.26721e-08
3.16545e-06
-1.76187e-05
1.60917e-08
3.39488e-06
-1.68414e-05
9.05259e-09
3.60425e-06
-1.59567e-05
1.67949e-09
3.79326e-06
-1.49701e-05
-5.95129e-09
3.96657e-06
-1.38885e-05
-1.37846e-08
4.12325e-06
-1.27196e-05
-2.17856e-08
4.26235e-06
-1.14749e-05
-2.98111e-08
4.38198e-06
-1.01692e-05
-3.74903e-08
4.47819e-06
-8.8204e-06
-4.48997e-08
4.54845e-06
-7.44448e-06
-5.26907e-08
4.59277e-06
-6.05793e-06
-6.05607e-08
4.6155e-06
-4.68078e-06
-6.81094e-08
4.60477e-06
-3.3101e-06
-7.48551e-08
4.53873e-06
-1.91001e-06
-8.05819e-08
4.42504e-06
-5.4327e-07
-8.44586e-08
4.3679e-06
5.74595e-07
-8.52665e-08
4.22674e-06
1.62987e-06
-8.18198e-08
3.96329e-06
2.93895e-06
-7.10077e-08
3.57131e-06
4.46541e-06
-4.67533e-08
3.07109e-06
6.39414e-06
-2.5185e-09
2.47998e-06
8.96388e-06
6.578e-08
1.78124e-06
1.20546e-05
1.46288e-07
1.01051e-06
1.4501e-05
2.06374e-07
3.13196e-07
1.49866e-05
2.01654e-07
9.03821e-06
7.24873e-08
1.73434e-07
-5.9195e-06
1.53596e-08
4.84116e-07
-1.40271e-05
4.43294e-08
7.96321e-07
-1.79247e-05
5.82933e-08
1.09615e-06
-1.93327e-05
5.99926e-08
1.38974e-06
-1.98228e-05
5.79259e-08
1.67813e-06
-1.99405e-05
5.43958e-08
1.95909e-06
-1.98366e-05
5.01073e-08
2.23004e-06
-1.95554e-05
4.5303e-08
2.48867e-06
-1.91246e-05
4.01319e-08
2.73308e-06
-1.85614e-05
3.45023e-08
2.96189e-06
-1.78757e-05
2.82616e-08
3.17421e-06
-1.70751e-05
2.14102e-08
3.37029e-06
-1.61668e-05
1.39562e-08
3.55235e-06
-1.51581e-05
5.88926e-09
3.72301e-06
-1.40563e-05
-2.8151e-09
3.88429e-06
-1.28687e-05
-1.21649e-08
4.03602e-06
-1.16045e-05
-2.2105e-08
4.176e-06
-1.02768e-05
-3.24509e-08
4.30094e-06
-8.90259e-06
-4.27684e-08
4.40819e-06
-7.49873e-06
-5.29965e-08
4.49298e-06
-6.08023e-06
-6.24923e-08
4.54743e-06
-4.66332e-06
-7.19262e-08
4.57165e-06
-3.25418e-06
-8.01415e-08
4.58907e-06
-1.84066e-06
-8.67753e-08
4.60398e-06
-4.66695e-07
-9.14943e-08
4.63213e-06
6.40391e-07
-9.39443e-08
4.53019e-06
1.82688e-06
-9.50766e-08
4.33955e-06
3.22273e-06
-9.31456e-08
3.99654e-06
4.89243e-06
-8.4014e-08
3.43015e-06
7.02161e-06
-6.10806e-08
2.62869e-06
9.77907e-06
-1.37288e-08
1.68759e-06
1.29387e-05
5.69113e-08
8.0031e-07
1.52682e-05
1.20082e-07
1.3064e-07
1.55194e-05
1.36916e-07
9.134e-06
3.48523e-08
1.69054e-07
-6.10712e-06
1.85353e-08
4.35652e-07
-1.43467e-05
5.29285e-08
6.88916e-07
-1.82453e-05
6.72729e-08
9.27521e-07
-1.96393e-05
6.79317e-08
1.16089e-06
-2.01212e-05
6.50546e-08
1.39059e-06
-2.02313e-05
6.10611e-08
1.61427e-06
-2.0117e-05
5.66256e-08
1.8298e-06
-1.98228e-05
5.19348e-08
2.03521e-06
-1.93771e-05
4.70681e-08
2.22921e-06
-1.87973e-05
4.1882e-08
2.41116e-06
-1.80939e-05
3.6179e-08
2.58094e-06
-1.72748e-05
2.99117e-08
2.73922e-06
-1.63481e-05
2.30337e-08
2.88776e-06
-1.53221e-05
1.54502e-08
3.02996e-06
-1.42055e-05
7.02735e-09
3.17007e-06
-1.30065e-05
-2.35692e-09
3.30992e-06
-1.17316e-05
-1.27633e-08
3.44665e-06
-1.03894e-05
-2.40821e-08
3.57323e-06
-8.99323e-06
-3.59375e-08
3.68465e-06
-7.56189e-06
-4.82346e-08
3.77691e-06
-6.11207e-06
-6.04114e-08
3.83219e-06
-4.64745e-06
-7.1126e-08
3.84272e-06
-3.18377e-06
-8.09077e-08
3.82469e-06
-1.73408e-06
-8.85257e-08
3.79623e-06
-3.45007e-07
-9.31964e-08
3.72775e-06
8.03757e-07
-9.48552e-08
3.55168e-06
2.09736e-06
-9.43654e-08
3.29893e-06
3.56558e-06
-9.00549e-08
2.90824e-06
5.3656e-06
-8.243e-08
2.29777e-06
7.70314e-06
-7.10169e-08
1.48305e-06
1.06437e-05
-4.98475e-08
6.82284e-07
1.37536e-05
-1.40781e-08
1.39544e-07
1.57925e-05
1.8493e-08
-9.59462e-08
1.57267e-05
2.8179e-08
9.04817e-06
-1.01203e-08
1.2599e-07
-6.26117e-06
2.80272e-08
3.37887e-07
-1.46305e-05
7.19462e-08
5.36521e-07
-1.85311e-05
8.71922e-08
7.24269e-07
-1.99133e-05
8.62674e-08
9.0997e-07
-2.03891e-05
8.21177e-08
1.09461e-06
-2.04933e-05
7.73823e-08
1.27544e-06
-2.03705e-05
7.27083e-08
1.45057e-06
-2.00662e-05
6.82584e-08
1.61843e-06
-1.9609e-05
6.40111e-08
1.77819e-06
-1.90168e-05
5.97376e-08
1.92975e-06
-1.83006e-05
5.5152e-08
2.07336e-06
-1.74686e-05
5.01006e-08
2.20925e-06
-1.65284e-05
4.44126e-08
2.3373e-06
-1.5488e-05
3.78391e-08
2.45741e-06
-1.43557e-05
3.00612e-08
2.57103e-06
-1.31409e-05
2.07742e-08
2.68173e-06
-1.18521e-05
9.79041e-09
2.79186e-06
-1.04967e-05
-2.87251e-09
2.89867e-06
-9.08319e-06
-1.68498e-08
2.99324e-06
-7.62442e-06
-3.20382e-08
3.06507e-06
-6.13654e-06
-4.73649e-08
3.10937e-06
-4.63051e-06
-6.12464e-08
3.10368e-06
-3.10416e-06
-7.39128e-08
3.03505e-06
-1.58155e-06
-8.38911e-08
2.90079e-06
-1.20783e-07
-8.99447e-08
2.70423e-06
1.09132e-06
-9.09845e-08
2.43102e-06
2.45686e-06
-8.62656e-08
2.09291e-06
3.97725e-06
-7.35225e-08
1.70844e-06
5.8028e-06
-5.26782e-08
1.29648e-06
8.14308e-06
-2.79386e-08
8.81594e-07
1.1064e-05
-5.40598e-09
5.1528e-07
1.41067e-05
1.32526e-08
2.33227e-07
1.60509e-05
2.36379e-08
6.83682e-08
1.58753e-05
1.64117e-08
9.11921e-06
-2.66981e-09
1.08315e-07
-6.40445e-06
3.49201e-08
2.65463e-07
-1.48727e-05
8.49427e-08
4.01512e-07
-1.87677e-05
1.0051e-07
5.27149e-07
-2.01376e-05
9.86477e-08
6.52739e-07
-2.06083e-05
9.36221e-08
7.80347e-07
-2.07092e-05
8.82865e-08
9.08559e-07
-2.05821e-05
8.33471e-08
1.03676e-06
-2.02734e-05
7.90002e-08
1.1644e-06
-1.98118e-05
7.52414e-08
1.29167e-06
-1.92159e-05
7.18163e-08
1.41929e-06
-1.84966e-05
6.84104e-08
1.54821e-06
-1.76623e-05
6.483e-08
1.67946e-06
-1.67205e-05
6.08496e-08
1.81378e-06
-1.56784e-05
5.61347e-08
1.95139e-06
-1.45436e-05
5.02263e-08
2.09201e-06
-1.33241e-05
4.25924e-08
2.23632e-06
-1.20291e-05
3.27479e-08
2.38795e-06
-1.06687e-05
2.04181e-08
2.55088e-06
-9.25184e-06
5.72088e-09
2.72229e-06
-7.7842e-06
-1.16147e-08
2.88878e-06
-6.27217e-06
-3.085e-08
3.03358e-06
-4.72417e-06
-5.11213e-08
3.14025e-06
-3.14079e-06
-7.00196e-08
3.19307e-06
-1.5475e-06
-8.68458e-08
3.17723e-06
-4.35332e-09
-1.00573e-07
3.11099e-06
1.26608e-06
-1.08499e-07
2.95775e-06
2.72153e-06
-1.11405e-07
2.72103e-06
4.31913e-06
-1.05144e-07
2.43583e-06
6.17302e-06
-8.50171e-08
2.15014e-06
8.47755e-06
-4.87716e-08
1.84989e-06
1.13673e-05
-3.02368e-09
1.42898e-06
1.44897e-05
3.79061e-08
8.62884e-07
1.65523e-05
6.47042e-08
2.93115e-07
1.63771e-05
6.79556e-08
9.38791e-06
2.44223e-08
8.39915e-08
-6.53339e-06
4.48936e-08
2.03754e-07
-1.50954e-05
1.02974e-07
3.0788e-07
-1.89913e-05
1.19496e-07
4.07287e-07
-2.03541e-05
1.17047e-07
5.10008e-07
-2.08223e-05
1.11265e-07
6.1792e-07
-2.09224e-05
1.05269e-07
7.30358e-07
-2.07944e-05
9.98853e-08
8.47262e-07
-2.04858e-05
9.54085e-08
9.68511e-07
-2.0025e-05
9.18909e-08
1.09465e-06
-1.94312e-05
8.90742e-08
1.22659e-06
-1.87152e-05
8.66421e-08
1.36524e-06
-1.78854e-05
8.43941e-08
1.51126e-06
-1.69486e-05
8.20803e-08
1.66487e-06
-1.59114e-05
7.93266e-08
1.82586e-06
-1.47802e-05
7.56014e-08
1.99356e-06
-1.3562e-05
7.02452e-08
2.16705e-06
-1.22652e-05
6.25545e-08
2.34607e-06
-1.08997e-05
5.19318e-08
2.53289e-06
-9.4768e-06
3.81224e-08
2.73367e-06
-8.00546e-06
2.04693e-08
2.95025e-06
-6.48802e-06
-7.56327e-10
3.17402e-06
-4.92318e-06
-2.47649e-08
3.39422e-06
-3.31085e-06
-5.01531e-08
3.59186e-06
-1.67018e-06
-7.49701e-08
3.74581e-06
-6.10768e-08
-9.72125e-08
3.83045e-06
1.29488e-06
-1.13432e-07
3.81993e-06
2.86142e-06
-1.29355e-07
3.67458e-06
4.60486e-06
-1.40345e-07
3.35014e-06
6.63856e-06
-1.4106e-07
2.83092e-06
9.1191e-06
-1.22282e-07
2.1455e-06
1.21308e-05
-7.80393e-08
1.37095e-06
1.5286e-05
-2.16619e-08
6.56815e-07
1.72449e-05
2.15554e-08
1.14749e-07
1.6876e-05
4.31869e-08
9.49899e-06
3.66499e-09
7.12215e-08
-6.65719e-06
5.25142e-08
1.53288e-07
-1.52911e-05
1.13585e-07
2.1962e-07
-1.91874e-05
1.29712e-07
2.85959e-07
-2.05476e-05
1.27154e-07
3.59084e-07
-2.10168e-05
1.21318e-07
4.39834e-07
-2.11184e-05
1.15271e-07
5.27061e-07
-2.09915e-05
1.09875e-07
6.2037e-07
-2.06846e-05
1.05487e-07
7.1914e-07
-2.0226e-05
1.02258e-07
8.23341e-07
-1.96354e-05
9.99813e-08
9.33325e-07
-1.89236e-05
9.83694e-08
1.04939e-06
-1.80987e-05
9.72763e-08
1.17168e-06
-1.71674e-05
9.65107e-08
1.30023e-06
-1.61357e-05
9.57537e-08
1.43509e-06
-1.50096e-05
9.45153e-08
1.57634e-06
-1.37954e-05
9.21506e-08
1.72385e-06
-1.25006e-05
8.79208e-08
1.87704e-06
-1.11338e-05
8.09634e-08
2.0347e-06
-9.70527e-06
7.07886e-08
2.19728e-06
-8.22429e-06
5.62363e-08
2.36784e-06
-6.69568e-06
3.70828e-08
2.5486e-06
-5.1175e-06
1.35393e-08
2.73308e-06
-3.48189e-06
-1.34631e-08
2.8929e-06
-1.78816e-06
-4.18639e-08
2.99689e-06
-9.66978e-08
-6.83926e-08
2.9933e-06
1.38696e-06
-8.8533e-08
2.89344e-06
3.06874e-06
-1.07501e-07
2.66268e-06
4.9597e-06
-1.24128e-07
2.24078e-06
7.19898e-06
-1.38575e-07
1.59821e-06
9.90644e-06
-1.44824e-07
8.4339e-07
1.30161e-05
-1.30577e-07
2.34999e-07
1.59903e-05
-9.59767e-08
-7.42459e-08
1.76196e-05
-6.55324e-08
-1.55256e-07
1.70005e-05
-4.35528e-08
9.37407e-06
-3.03369e-08
2.90014e-08
-6.74959e-06
6.33143e-08
5.91216e-08
-1.54493e-05
1.28037e-07
7.79537e-08
-1.93497e-05
1.43476e-07
1.04064e-07
-2.07145e-05
1.40724e-07
1.43596e-07
-2.11913e-05
1.35027e-07
1.95047e-07
-2.12992e-05
1.29326e-07
2.56223e-07
-2.11771e-05
1.24415e-07
3.25979e-07
-2.0875e-05
1.20618e-07
4.03124e-07
-2.04213e-05
1.18094e-07
4.86887e-07
-1.98358e-05
1.16691e-07
5.77197e-07
-1.913e-05
1.16065e-07
6.73981e-07
-1.83116e-05
1.16078e-07
7.76962e-07
-1.7387e-05
1.16572e-07
8.85639e-07
-1.63617e-05
1.17274e-07
9.99327e-07
-1.5241e-05
1.17744e-07
1.11726e-06
-1.40308e-05
1.17377e-07
1.23869e-06
-1.27376e-05
1.15454e-07
1.36272e-06
-1.13691e-05
1.11253e-07
1.48774e-06
-9.93449e-06
1.04166e-07
1.6119e-06
-8.44137e-06
9.28825e-08
1.73401e-06
-6.89481e-06
7.69866e-08
1.85349e-06
-5.29332e-06
5.62978e-08
1.9632e-06
-3.62275e-06
3.11055e-08
2.02658e-06
-1.8541e-06
2.50896e-09
2.00776e-06
-5.19509e-08
-2.59678e-08
1.90266e-06
1.54014e-06
-4.8116e-08
1.69786e-06
3.33764e-06
-6.41263e-08
1.41156e-06
5.31971e-06
-7.37336e-08
1.07762e-06
7.61325e-06
-8.03399e-08
7.24115e-07
1.03483e-05
-8.83261e-08
4.01589e-07
1.34326e-05
-9.39238e-08
1.86446e-07
1.62934e-05
-8.79086e-08
7.06988e-08
1.78107e-05
-7.53377e-08
5.58375e-09
1.71224e-05
-5.68447e-08
9.40028e-06
-2.06378e-08
6.14265e-10
-6.8208e-06
7.04993e-08
-5.56289e-08
-1.55266e-05
1.33421e-07
-1.21555e-07
-1.9431e-05
1.47186e-07
-1.60612e-07
-2.08206e-05
1.45159e-07
-1.76548e-07
-2.13157e-05
1.40328e-07
-1.73741e-07
-2.14378e-05
1.35716e-07
-1.53901e-07
-2.13291e-05
1.32056e-07
-1.18166e-07
-2.10403e-05
1.29615e-07
-6.75176e-08
-2.06005e-05
1.28546e-07
-2.62431e-09
-2.00295e-05
1.28741e-07
7.6585e-08
-1.93391e-05
1.29871e-07
1.70129e-07
-1.8537e-05
1.31794e-07
2.7779e-07
-1.76291e-05
1.34362e-07
3.99142e-07
-1.66204e-05
1.37313e-07
5.33631e-07
-1.55157e-05
1.40203e-07
6.80688e-07
-1.43203e-05
1.42392e-07
8.3982e-07
-1.30398e-05
1.43072e-07
1.01068e-06
-1.16814e-05
1.41365e-07
1.19275e-06
-1.02532e-05
1.3657e-07
1.38589e-06
-8.76191e-06
1.27371e-07
1.59137e-06
-7.21331e-06
1.12984e-07
1.81242e-06
-5.60734e-06
9.29283e-08
2.04727e-06
-3.92463e-06
6.69779e-08
2.25694e-06
-2.09882e-06
3.49984e-08
2.38413e-06
-1.79095e-07
-1.03683e-10
2.44012e-06
1.51294e-06
-2.88652e-08
2.35946e-06
3.47187e-06
-5.36604e-08
2.18238e-06
5.56533e-06
-6.86166e-08
1.97465e-06
7.8898e-06
-6.89124e-08
1.77907e-06
1.06037e-05
-5.99482e-08
1.5562e-06
1.37061e-05
-5.07542e-08
1.21094e-06
1.66802e-05
-4.16797e-08
7.46734e-07
1.83017e-05
-2.68672e-08
2.78357e-07
1.75993e-05
-8.57347e-09
9.67184e-06
6.80254e-09
-3.50219e-08
-6.86426e-06
7.83797e-08
-1.33409e-07
-1.55672e-05
1.38946e-07
-2.34961e-07
-1.94793e-05
1.49773e-07
-3.09418e-07
-2.08953e-05
1.49162e-07
-3.58001e-07
-2.14127e-05
1.4549e-07
-3.83062e-07
-2.15548e-05
1.41998e-07
-3.84596e-07
-2.14671e-05
1.39515e-07
-3.6323e-07
-2.12001e-05
1.38365e-07
-3.19662e-07
-2.07828e-05
1.38724e-07
-2.54606e-07
-2.02351e-05
1.40536e-07
-1.68171e-07
-1.9569e-05
1.43496e-07
-6.07617e-08
-1.87919e-05
1.47497e-07
6.6757e-08
-1.79091e-05
1.52438e-07
2.13166e-07
-1.69249e-05
1.58111e-07
3.77144e-07
-1.58439e-05
1.64112e-07
5.57586e-07
-1.46705e-05
1.69798e-07
7.53931e-07
-1.34105e-05
1.74317e-07
9.66258e-07
-1.20706e-05
1.76823e-07
1.19583e-06
-1.0659e-05
1.76174e-07
1.44611e-06
-9.18293e-06
1.70689e-07
1.72289e-06
-7.64945e-06
1.59302e-07
2.03502e-06
-6.06071e-06
1.41163e-07
2.39038e-06
-4.39557e-06
1.15507e-07
2.76091e-06
-2.54992e-06
8.04842e-08
3.08565e-06
-5.40736e-07
3.68097e-08
3.29376e-06
1.30965e-06
-4.89494e-09
3.34746e-06
3.46538e-06
-4.72881e-08
3.20825e-06
5.79036e-06
-8.58975e-08
2.88358e-06
8.31971e-06
-1.05307e-07
2.40276e-06
1.11843e-05
-9.98591e-08
1.79875e-06
1.43867e-05
-7.66448e-08
1.14256e-06
1.73881e-05
-5.17615e-08
5.60514e-07
1.89144e-05
-3.06615e-08
1.29384e-07
1.80366e-05
-6.30223e-09
9.79872e-06
2.49687e-09
-8.01909e-08
-6.86562e-06