/*--------------------------------*- C++ -*----------------------------------*\
  =========                 |
  \\      /  F ield         | OpenFOAM: The Open Source CFD Toolbox
   \\    /   O peration     | Website:  https://openfoam.org
    \\  /    A nd           | Version:  11
     \\/     M anipulation  |
\*---------------------------------------------------------------------------*/
FoamFile
{
    format      ascii;
    class       volScalarField;
    location    "700";
    object      T;
}
// * * * * * * * * * * * * * * * * * * * * * * * * * * * * * * * * * * * * * //

dimensions      [0 0 0 1 0 0 0];

internalField   nonuniform List<scalar> 
78750
(
288.547
289.185
289.455
289.58
289.685
289.786
289.878
289.958
290.028
290.09
290.147
290.2
290.248
290.293
290.335
290.373
290.407
290.439
290.468
290.494
290.518
290.538
290.555
290.568
290.579
290.587
290.591
290.59
290.59
290.59
290.592
290.608
290.781
292.31
300.699
288.359
288.74
289.015
289.257
289.486
289.686
289.854
289.999
290.129
290.247
290.354
290.452
290.542
290.624
290.699
290.767
290.829
290.885
290.934
290.976
291.012
291.041
291.065
291.081
291.089
291.089
291.085
291.067
291.037
290.991
290.932
290.937
291.154
293.197
301.471
288.353
288.767
289.162
289.515
289.81
290.037
290.211
290.353
290.473
290.579
290.672
290.757
290.835
290.905
290.97
291.028
291.08
291.127
291.169
291.206
291.236
291.259
291.276
291.286
291.289
291.286
291.275
291.256
291.229
291.197
291.196
291.295
291.989
294.744
302.579
288.408
288.936
289.415
289.772
290.008
290.173
290.305
290.419
290.524
290.621
290.714
290.801
290.884
290.962
291.035
291.103
291.165
291.221
291.27
291.312
291.347
291.374
291.394
291.405
291.407
291.403
291.389
291.37
291.35
291.347
291.398
291.731
292.85
296.128
303.381
288.433
289.001
289.49
289.836
290.071
290.244
290.388
290.516
290.633
290.741
290.842
290.935
291.022
291.102
291.176
291.244
291.304
291.359
291.406
291.445
291.476
291.498
291.512
291.518
291.517
291.51
291.496
291.481
291.472
291.49
291.634
292.152
293.563
297.051
303.846
288.463
289.087
289.599
289.935
290.152
290.313
290.448
290.57
290.682
290.787
290.886
290.98
291.068
291.151
291.227
291.298
291.361
291.416
291.463
291.502
291.532
291.553
291.566
291.571
291.57
291.565
291.557
291.556
291.569
291.647
291.904
292.624
294.278
297.855
304.204
288.476
289.116
289.632
289.969
290.188
290.353
290.495
290.624
290.743
290.855
290.96
291.059
291.152
291.239
291.319
291.392
291.458
291.514
291.561
291.599
291.626
291.645
291.655
291.658
291.655
291.65
291.645
291.649
291.681
291.79
292.11
292.944
294.737
298.34
304.404
288.493
289.163
289.691
290.024
290.239
290.402
290.542
290.671
290.791
290.904
291.01
291.111
291.207
291.296
291.378
291.452
291.518
291.575
291.622
291.66
291.688
291.706
291.716
291.72
291.719
291.719
291.725
291.751
291.818
291.991
292.422
293.406
295.31
298.878
304.628
288.502
289.181
289.713
290.047
290.264
290.431
290.576
290.709
290.834
290.951
291.063
291.169
291.268
291.361
291.447
291.525
291.594
291.654
291.703
291.741
291.769
291.787
291.797
291.8
291.801
291.803
291.817
291.855
291.95
292.186
292.731
293.865
295.864
299.37
304.817
288.513
289.21
289.748
290.082
290.298
290.465
290.611
290.745
290.872
290.991
291.105
291.213
291.314
291.409
291.497
291.577
291.648
291.709
291.761
291.801
291.832
291.852
291.864
291.871
291.876
291.884
291.905
291.953
292.069
292.341
292.951
294.176
296.23
299.68
304.936
288.52
289.225
289.765
290.099
290.316
290.485
290.634
290.771
290.901
291.024
291.14
291.252
291.357
291.456
291.548
291.631
291.706
291.772
291.826
291.87
291.903
291.926
291.94
291.95
291.958
291.972
292
292.057
292.184
292.463
293.078
294.319
296.391
299.82
304.989
288.526
289.244
289.79
290.126
290.344
290.514
290.665
290.804
290.936
291.061
291.181
291.294
291.402
291.503
291.597
291.683
291.76
291.827
291.884
291.93
291.965
291.991
292.009
292.022
292.037
292.059
292.102
292.185
292.357
292.713
293.436
294.781
296.871
300.188
305.134
288.534
289.259
289.808
290.144
290.363
290.536
290.689
290.832
290.966
291.095
291.218
291.335
291.446
291.551
291.649
291.739
291.82
291.89
291.95
291.999
292.037
292.065
292.085
292.101
292.117
292.142
292.188
292.281
292.481
292.9
293.725
295.17
297.271
300.481
305.236
288.54
289.277
289.832
290.17
290.391
290.565
290.721
290.865
291.002
291.133
291.259
291.379
291.493
291.601
291.702
291.794
291.878
291.951
292.013
292.065
292.105
292.136
292.161
292.181
292.203
292.232
292.278
292.368
292.554
292.95
293.764
295.223
297.33
300.521
305.245
288.548
289.295
289.852
290.189
290.411
290.587
290.745
290.893
291.033
291.167
291.295
291.418
291.536
291.647
291.752
291.848
291.936
292.013
292.079
292.134
292.177
292.212
292.24
292.266
292.295
292.334
292.394
292.498
292.688
293.065
293.833
295.265
297.386
300.592
305.285
288.555
289.313
289.874
290.212
290.435
290.613
290.773
290.923
291.065
291.201
291.333
291.459
291.579
291.694
291.801
291.9
291.991
292.072
292.142
292.201
292.249
292.288
292.32
292.352
292.39
292.445
292.535
292.693
292.972
293.474
294.379
295.893
297.958
300.984
305.437
288.562
289.329
289.89
290.227
290.45
290.63
290.791
290.943
291.087
291.226
291.359
291.488
291.611
291.728
291.838
291.942
292.037
292.122
292.198
292.263
292.316
292.36
292.397
292.431
292.471
292.529
292.629
292.814
293.156
293.769
294.781
296.32
298.32
301.207
305.503
288.568
289.341
289.905
290.242
290.466
290.646
290.809
290.962
291.108
291.248
291.383
291.513
291.638
291.758
291.871
291.978
292.077
292.167
292.248
292.319
292.38
292.432
292.477
292.518
292.561
292.614
292.699
292.86
293.174
293.771
294.783
296.343
298.35
301.229
305.501
288.573
289.352
289.914
290.249
290.473
290.654
290.818
290.971
291.118
291.259
291.395
291.526
291.652
291.774
291.89
292
292.103
292.198
292.285
292.363
292.432
292.494
292.551
292.606
292.664
292.731
292.822
292.968
293.233
293.776
294.787
296.353
298.365
301.244
305.515
288.577
289.36
289.924
290.259
290.483
290.665
290.83
290.984
291.132
291.274
291.411
291.543
291.671
291.795
291.913
292.026
292.133
292.232
292.324
292.407
292.483
292.552
292.618
292.687
292.766
292.865
293.003
293.215
293.553
294.11
295.089
296.677
298.681
301.492
305.624
288.581
289.368
289.93
290.265
290.489
290.671
290.837
290.992
291.14
291.282
291.419
291.553
291.682
291.807
291.929
292.045
292.156
292.26
292.357
292.447
292.529
292.603
292.674
292.747
292.832
292.943
293.11
293.375
293.801
294.481
295.546
297.104
298.995
301.656
305.666
288.583
289.372
289.933
290.268
290.492
290.675
290.84
290.996
291.144
291.286
291.423
291.556
291.686
291.812
291.935
292.056
292.173
292.285
292.389
292.486
292.576
292.659
292.737
292.814
292.896
292.997
293.147
293.398
293.823
294.514
295.593
297.151
299.029
301.667
305.657
288.584
289.372
289.932
290.267
290.492
290.675
290.84
290.996
291.144
291.286
291.423
291.556
291.686
291.812
291.935
292.056
292.174
292.29
292.401
292.508
292.608
292.702
292.794
292.887
292.983
293.09
293.231
293.448
293.833
294.516
295.599
297.163
299.043
301.677
305.662
288.584
289.37
289.927
290.261
290.487
290.67
290.836
290.991
291.139
291.281
291.418
291.551
291.681
291.809
291.933
292.055
292.174
292.29
292.403
292.515
292.625
292.734
292.842
292.958
293.087
293.239
293.433
293.705
294.106
294.757
295.841
297.433
299.296
301.86
305.749
288.583
289.362
289.916
290.251
290.476
290.659
290.823
290.977
291.124
291.264
291.4
291.533
291.662
291.79
291.915
292.038
292.16
292.28
292.398
292.513
292.625
292.737
292.852
292.979
293.127
293.313
293.562
293.916
294.43
295.188
296.306
297.831
299.587
302.035
305.793
288.579
289.352
289.905
290.242
290.469
290.651
290.815
290.968
291.114
291.254
291.389
291.52
291.649
291.775
291.9
292.022
292.143
292.263
292.382
292.5
292.616
292.733
292.851
292.98
293.127
293.308
293.551
293.907
294.437
295.224
296.359
297.871
299.603
302.028
305.773
288.575
289.34
289.892
290.233
290.462
290.646
290.81
290.963
291.109
291.249
291.385
291.517
291.646
291.772
291.896
292.018
292.138
292.257
292.374
292.49
292.606
292.724
292.846
292.978
293.131
293.311
293.54
293.877
294.397
295.186
296.333
297.863
299.603
302.027
305.77
288.573
289.337
289.889
290.232
290.462
290.646
290.81
290.963
291.109
291.25
291.387
291.521
291.652
291.781
291.908
292.031
292.152
292.27
292.385
292.497
292.609
292.723
292.844
292.982
293.153
293.365
293.624
293.962
294.458
295.225
296.376
297.928
299.684
302.098
305.81
288.573
289.337
289.892
290.239
290.473
290.659
290.825
290.981
291.129
291.274
291.414
291.552
291.688
291.822
291.954
292.083
292.208
292.326
292.438
292.545
292.649
292.753
292.863
292.994
293.166
293.399
293.708
294.13
294.719
295.554
296.728
298.233
299.922
302.268
305.866
288.578
289.349
289.911
290.264
290.502
290.692
290.862
291.021
291.174
291.322
291.467
291.611
291.753
291.894
292.033
292.167
292.295
292.415
292.525
292.627
292.723
292.817
292.915
293.028
293.175
293.383
293.683
294.123
294.744
295.61
296.787
298.262
299.918
302.249
305.846
288.586
289.37
289.94
290.299
290.541
290.735
290.91
291.074
291.231
291.385
291.537
291.687
291.837
291.987
292.134
292.277
292.41
292.531
292.639
292.735
292.822
292.907
292.996
293.097
293.223
293.394
293.647
294.042
294.658
295.536
296.727
298.228
299.902
302.227
305.833
288.597
289.398
289.978
290.34
290.587
290.786
290.967
291.138
291.303
291.465
291.626
291.787
291.948
292.109
292.268
292.421
292.562
292.686
292.793
292.883
292.964
293.042
293.125
293.222
293.344
293.505
293.727
294.076
294.658
295.535
296.734
298.244
299.929
302.257
305.859
288.611
289.434
290.024
290.389
290.638
290.843
291.029
291.208
291.381
291.553
291.724
291.896
292.069
292.243
292.415
292.579
292.728
292.856
292.961
293.048
293.124
293.198
293.277
293.372
293.497
293.675
293.941
294.346
294.937
295.807
297.036
298.556
300.219
302.504
305.964
288.625
289.464
290.058
290.424
290.676
290.885
291.077
291.262
291.442
291.621
291.8
291.98
292.164
292.35
292.535
292.711
292.87
293.004
293.113
293.202
293.279
293.352
293.427
293.513
293.625
293.79
294.06
294.506
295.18
296.109
297.33
298.774
300.365
302.612
305.984
288.636
289.487
290.083
290.449
290.701
290.912
291.109
291.298
291.483
291.666
291.85
292.035
292.226
292.421
292.616
292.804
292.975
293.121
293.24
293.337
293.42
293.498
293.574
293.656
293.754
293.89
294.116
294.52
295.176
296.115
297.346
298.788
300.371
302.599
305.969
288.642
289.498
290.094
290.459
290.713
290.927
291.126
291.318
291.505
291.691
291.877
292.066
292.26
292.458
292.66
292.858
293.043
293.205
293.338
293.447
293.541
293.629
293.716
293.808
293.911
294.039
294.226
294.557
295.181
296.112
297.352
298.795
300.38
302.601
305.971
288.645
289.501
290.095
290.459
290.714
290.928
291.129
291.322
291.511
291.698
291.886
292.075
292.268
292.468
292.673
292.881
293.08
293.259
293.411
293.535
293.642
293.741
293.841
293.951
294.079
294.24
294.459
294.784
295.304
296.183
297.428
298.89
300.485
302.702
306.025
288.647
289.504
290.096
290.46
290.714
290.929
291.129
291.323
291.512
291.7
291.888
292.077
292.271
292.472
292.681
292.896
293.108
293.303
293.469
293.606
293.724
293.831
293.939
294.057
294.203
294.402
294.686
295.096
295.692
296.574
297.781
299.169
300.715
302.908
306.095
288.648
289.506
290.095
290.458
290.712
290.927
291.128
291.322
291.512
291.7
291.888
292.077
292.271
292.472
292.682
292.899
293.118
293.332
293.522
293.677
293.804
293.916
294.024
294.142
294.287
294.491
294.798
295.263
295.936
296.853
298.028
299.345
300.833
302.965
306.097
288.648
289.501
290.086
290.447
290.701
290.915
291.114
291.307
291.496
291.683
291.871
292.06
292.253
292.452
292.66
292.879
293.107
293.331
293.54
293.724
293.874
293.999
294.112
294.228
294.367
294.556
294.842
295.29
295.973
296.909
298.088
299.376
300.832
302.931
306.073
288.642
289.483
290.065
290.426
290.68
290.893
291.09
291.279
291.465
291.648
291.831
292.016
292.202
292.394
292.595
292.807
293.035
293.274
293.51
293.724
293.906
294.058
294.188
294.314
294.455
294.635
294.894
295.301
295.959
296.89
298.076
299.378
300.831
302.914
306.064
288.636
289.468
290.047
290.41
290.663
290.875
291.072
291.26
291.445
291.626
291.805
291.985
292.167
292.352
292.543
292.744
292.958
293.191
293.437
293.681
293.902
294.088
294.246
294.393
294.553
294.749
295.011
295.393
295.979
296.892
298.08
299.396
300.853
302.937
306.077
288.63
289.453
290.03
290.394
290.648
290.859
291.055
291.242
291.425
291.605
291.784
291.963
292.144
292.328
292.513
292.703
292.902
293.115
293.352
293.602
293.852
294.076
294.267
294.443
294.631
294.857
295.16
295.59
296.211
297.089
298.257
299.553
300.97
303.018
306.103
288.622
289.438
290.018
290.385
290.64
290.851
291.046
291.232
291.414
291.595
291.774
291.954
292.135
292.319
292.505
292.692
292.882
293.078
293.285
293.517
293.769
294.018
294.24
294.443
294.65
294.891
295.211
295.665
296.315
297.211
298.348
299.589
300.973
303.012
306.092
288.62
289.437
290.017
290.385
290.64
290.851
291.045
291.232
291.414
291.595
291.775
291.957
292.141
292.327
292.515
292.704
292.891
293.081
293.279
293.493
293.728
293.972
294.206
294.43
294.651
294.894
295.206
295.643
296.277
297.166
298.297
299.538
300.898
302.886
306.028
288.619
289.44
290.025
290.394
290.651
290.864
291.06
291.249
291.435
291.62
291.805
291.993
292.184
292.378
292.572
292.764
292.951
293.135
293.32
293.516
293.731
293.963
294.199
294.435
294.671
294.918
295.215
295.639
296.257
297.137
298.275
299.532
300.894
302.871
306.028
288.625
289.458
290.049
290.422
290.682
290.897
291.096
291.288
291.477
291.665
291.855
292.049
292.247
292.45
292.656
292.858
293.053
293.238
293.419
293.605
293.806
294.023
294.254
294.497
294.751
295.016
295.318
295.71
296.289
297.151
298.293
299.556
300.927
302.914
306.053
288.633
289.477
290.072
290.446
290.707
290.925
291.127
291.322
291.514
291.707
291.902
292.101
292.308
292.522
292.74
292.957
293.163
293.356
293.539
293.72
293.912
294.12
294.348
294.601
294.879
295.182
295.531
295.972
296.58
297.438
298.55
299.743
301.075
303.063
306.116
288.639
289.49
290.089
290.462
290.725
290.945
291.149
291.347
291.544
291.74
291.94
292.146
292.361
292.585
292.815
293.043
293.262
293.466
293.655
293.837
294.023
294.222
294.445
294.704
295.004
295.352
295.767
296.285
296.957
297.831
298.884
299.986
301.254
303.205
306.163
288.647
289.508
290.11
290.483
290.746
290.967
291.174
291.374
291.572
291.77
291.972
292.182
292.401
292.631
292.87
293.11
293.343
293.558
293.756
293.939
294.118
294.303
294.51
294.755
295.054
295.418
295.867
296.434
297.153
298.041
299.06
300.109
301.332
303.24
306.163
288.65
289.516
290.119
290.493
290.756
290.978
291.184
291.385
291.583
291.782
291.985
292.194
292.413
292.644
292.886
293.135
293.382
293.615
293.829
294.025
294.206
294.382
294.568
294.786
295.058
295.403
295.833
296.393
297.117
298.01
299.024
300.063
301.274
303.176
306.13
288.653
289.52
290.123
290.498
290.761
290.983
291.19
291.392
291.591
291.79
291.993
292.2
292.417
292.646
292.887
293.139
293.393
293.64
293.872
294.087
294.285
294.47
294.651
294.847
295.086
295.4
295.805
296.33
297.022
297.907
298.934
299.989
301.188
303.056
306.073
288.652
289.52
290.125
290.501
290.765
290.988
291.196
291.397
291.596
291.795
291.996
292.203
292.419
292.647
292.888
293.14
293.398
293.654
293.9
294.134
294.356
294.565
294.765
294.965
295.184
295.445
295.808
296.325
297.014
297.9
298.934
299.989
301.185
303.05
306.07
288.653
289.521
290.126
290.502
290.766
290.989
291.197
291.398
291.597
291.796
291.998
292.206
292.423
292.652
292.895
293.15
293.412
293.674
293.93
294.177
294.42
294.658
294.892
295.125
295.365
295.628
295.951
296.395
297.039
297.913
298.95
299.998
301.192
303.073
306.091
288.654
289.524
290.13
290.507
290.771
290.993
291.201
291.403
291.602
291.802
292.004
292.212
292.429
292.658
292.901
293.157
293.42
293.685
293.947
294.204
294.461
294.724
294.995
295.273
295.559
295.864
296.22
296.68
297.314
298.156
299.133
300.124
301.295
303.182
306.136
288.655
289.528
290.136
290.514
290.779
291.001
291.208
291.409
291.608
291.807
292.009
292.217
292.435
292.665
292.909
293.166
293.431
293.697
293.959
294.218
294.48
294.754
295.05
295.371
295.712
296.079
296.492
296.994
297.639
298.447
299.351
300.273
301.401
303.27
306.161
288.657
289.533
290.144
290.524
290.788
291.011
291.218
291.418
291.617
291.816
292.018
292.226
292.444
292.675
292.921
293.181
293.448
293.715
293.976
294.231
294.487
294.757
295.058
295.4
295.784
296.212
296.692
297.25
297.917
298.697
299.543
300.41
301.493
303.314
306.164
288.659
289.539
290.153
290.534
290.798
291.02
291.227
291.427
291.625
291.823
292.024
292.231
292.447
292.677
292.924
293.186
293.461
293.734
293.997
294.249
294.496
294.755
295.043
295.381
295.776
296.232
296.755
297.357
298.049
298.822
299.635
300.471
301.526
303.315
306.156
288.661
289.545
290.161
290.542
290.807
291.027
291.233
291.431
291.628
291.825
292.025
292.231
292.446
292.675
292.921
293.185
293.462
293.744
294.015
294.272
294.516
294.763
295.037
295.355
295.736
296.194
296.73
297.35
298.058
298.838
299.651
300.48
301.521
303.294
306.14
288.662
289.552
290.173
290.555
290.819
291.039
291.243
291.44
291.635
291.83
292.028
292.233
292.446
292.674
292.918
293.181
293.46
293.746
294.025
294.288
294.536
294.78
295.042
295.349
295.714
296.156
296.689
297.319
298.044
298.843
299.657
300.482
301.511
303.267
306.125
288.664
289.563
290.189
290.573
290.837
291.057
291.259
291.455
291.648
291.842
292.038
292.241
292.453
292.679
292.924
293.19
293.473
293.763
294.047
294.315
294.565
294.807
295.065
295.358
295.715
296.151
296.679
297.311
298.042
298.841
299.658
300.483
301.509
303.253
306.115
288.668
289.576
290.208
290.595
290.86
291.08
291.282
291.477
291.67
291.863
292.059
292.262
292.475
292.703
292.951
293.221
293.511
293.809
294.098
294.367
294.615
294.858
295.112
295.394
295.73
296.152
296.678
297.31
298.042
298.843
299.669
300.496
301.514
303.253
306.116
288.675
289.594
290.231
290.62
290.886
291.106
291.308
291.502
291.694
291.886
292.083
292.286
292.5
292.729
292.98
293.257
293.56
293.876
294.178
294.456
294.71
294.953
295.2
295.469
295.785
296.179
296.687
297.317
298.052
298.87
299.704
300.525
301.538
303.269
306.124
288.682
289.61
290.251
290.641
290.908
291.128
291.329
291.522
291.713
291.905
292.101
292.303
292.515
292.742
292.989
293.265
293.573
293.906
294.243
294.552
294.829
295.086
295.339
295.607
295.915
296.293
296.772
297.383
298.121
298.934
299.753
300.566
301.58
303.314
306.148
288.686
289.622
290.268
290.66
290.928
291.147
291.347
291.539
291.728
291.918
292.112
292.312
292.522
292.744
292.984
293.252
293.556
293.897
294.254
294.597
294.912
295.2
295.48
295.771
296.097
296.485
296.964
297.559
298.27
299.051
299.84
300.633
301.636
303.363
306.165
288.689
289.632
290.283
290.68
290.951
291.171
291.371
291.562
291.75
291.939
292.131
292.329
292.535
292.751
292.984
293.235
293.522
293.853
294.217
294.585
294.931
295.25
295.555
295.87
296.221
296.634
297.131
297.729
298.424
299.177
299.937
300.708
301.692
303.398
306.171
288.692
289.639
290.297
290.7
290.974
291.196
291.397
291.588
291.777
291.965
292.157
292.353
292.556
292.766
292.986
293.223
293.492
293.808
294.17
294.558
294.936
295.286
295.61
295.936
296.295
296.715
297.22
297.82
298.504
299.235
299.974
300.733
301.713
303.414
306.171
288.693
289.644
290.309
290.718
290.996
291.221
291.423
291.616
291.805
291.995
292.187
292.383
292.584
292.789
293
293.221
293.461
293.741
294.088
294.49
294.913
295.311
295.682
296.037
296.406
296.823
297.317
297.9
298.563
299.271
299.99
300.738
301.715
303.411
306.167
288.694
289.65
290.326
290.745
291.029
291.257
291.462
291.658
291.85
292.042
292.237
292.435
292.636
292.837
293.038
293.242
293.461
293.707
293.999
294.381
294.827
295.282
295.699
296.105
296.519
296.965
297.468
298.046
298.692
299.378
300.076
300.805
301.757
303.427
306.168
288.696
289.664
290.355
290.783
291.074
291.307
291.518
291.719
291.917
292.116
292.318
292.524
292.729
292.929
293.122
293.311
293.501
293.708
293.955
294.265
294.677
295.157
295.651
296.1
296.541
297.018
297.546
298.135
298.774
299.44
300.118
300.834
301.778
303.432
306.167
288.697
289.678
290.388
290.829
291.128
291.368
291.585
291.794
292.001
292.21
292.424
292.64
292.854
293.057
293.247
293.424
293.595
293.77
293.964
294.203
294.511
294.912
295.405
295.946
296.479
297.005
297.546
298.137
298.774
299.435
300.104
300.816
301.755
303.397
306.139
288.715
289.732
290.462
290.912
291.216
291.463
291.689
291.908
292.127
292.351
292.582
292.817
293.044
293.253
293.438
293.604
293.761
293.919
294.088
294.283
294.523
294.836
295.241
295.73
296.266
296.826
297.414
298.024
298.658
299.314
299.994
300.718
301.665
303.318
306.107
288.733
289.783
290.531
290.988
291.298
291.552
291.787
292.015
292.245
292.485
292.738
292.994
293.238
293.455
293.639
293.797
293.944
294.09
294.247
294.422
294.627
294.884
295.238
295.677
296.175
296.713
297.292
297.915
298.58
299.269
299.97
300.704
301.656
303.316
306.111
288.757
289.842
290.602
291.059
291.37
291.628
291.866
292.102
292.345
292.601
292.872
293.147
293.406
293.629
293.814
293.969
294.11
294.249
294.399
294.569
294.77
295.014
295.315
295.698
296.176
296.709
297.285
297.911
298.579
299.272
299.974
300.706
301.658
303.322
306.121
288.774
289.877
290.645
291.107
291.422
291.683
291.929
292.173
292.424
292.687
292.965
293.253
293.529
293.763
293.955
294.113
294.251
294.388
294.536
294.71
294.924
295.187
295.5
295.86
296.268
296.751
297.311
297.945
298.634
299.34
300.036
300.759
301.722
303.419
306.171
288.784
289.901
290.674
291.134
291.45
291.715
291.964
292.206
292.448
292.701
292.973
293.265
293.561
293.836
294.056
294.227
294.367
294.497
294.633
294.796
295.006
295.283
295.626
296.024
296.469
296.967
297.527
298.15
298.814
299.489
300.159
300.863
301.808
303.477
306.18
288.785
289.908
290.684
291.145
291.46
291.725
291.97
292.209
292.448
292.696
292.964
293.254
293.558
293.855
294.107
294.304
294.458
294.587
294.71
294.848
295.027
295.272
295.604
296.019
296.488
297.007
297.575
298.191
298.842
299.505
300.168
300.865
301.8
303.451
306.156
288.783
289.91
290.692
291.154
291.469
291.733
291.976
292.211
292.446
292.688
292.947
293.234
293.545
293.861
294.146
294.375
294.552
294.691
294.81
294.928
295.069
295.265
295.54
295.909
296.382
296.923
297.511
298.143
298.809
299.484
300.154
300.849
301.765
303.388
306.117
288.78
289.914
290.702
291.166
291.482
291.747
291.991
292.224
292.456
292.693
292.947
293.23
293.551
293.89
294.207
294.468
294.669
294.823
294.949
295.063
295.185
295.334
295.554
295.889
296.33
296.87
297.482
298.139
298.813
299.491
300.158
300.852
301.769
303.395
306.121
288.787
289.943
290.735
291.197
291.513
291.777
292.019
292.25
292.479
292.714
292.967
293.253
293.586
293.955
294.312
294.607
294.83
295.001
295.14
295.265
295.389
295.533
295.722
295.989
296.389
296.925
297.565
298.26
298.956
299.617
300.256
300.94
301.865
303.496
306.176
288.802
289.982
290.779
291.237
291.551
291.814
292.055
292.285
292.512
292.748
292.999
293.287
293.63
294.033
294.448
294.793
295.038
295.224
295.378
295.52
295.665
295.834
296.052
296.352
296.77
297.312
297.941
298.594
299.225
299.832
300.44
301.109
302.03
303.655
306.252
288.818
290.021
290.82
291.278
291.593
291.857
292.098
292.327
292.551
292.776
293.019
293.302
293.642
294.054
294.505
294.911
295.226
295.455
295.641
295.809
295.984
296.188
296.449
296.792
297.233
297.765
298.347
298.934
299.505
300.065
300.64
301.289
302.194
303.79
306.306
288.824
290.035
290.836
291.292
291.606
291.87
292.109
292.335
292.555
292.777
293.007
293.251
293.551
293.934
294.411
294.908
295.324
295.644
295.887
296.092
296.296
296.53
296.821
297.186
297.631
298.138
298.674
299.212
299.743
300.274
300.829
301.466
302.363
303.928
306.355
288.83
290.051
290.859
291.316
291.63
291.893
292.131
292.356
292.573
292.788
293.008
293.239
293.497
293.822
294.251
294.765
295.268
295.692
296.032
296.309
296.561
296.825
297.132
297.501
297.933
298.41
298.909
299.412
299.911
300.418
300.957
301.586
302.476
304.008
306.374
288.835
290.068
290.886
291.349
291.666
291.93
292.168
292.391
292.603
292.812
293.021
293.239
293.468
293.743
294.097
294.563
295.098
295.601
296.025
296.379
296.699
297.011
297.342
297.713
298.13
298.583
299.053
299.526
300.001
300.49
301.017
301.632
302.505
304.012
306.368
288.836
290.073
290.899
291.368
291.688
291.954
292.194
292.417
292.63
292.837
293.041
293.247
293.464
293.696
293.989
294.374
294.863
295.398
295.906
296.342
296.708
297.059
297.419
297.801
298.21
298.643
299.091
299.548
300.016
300.502
301.024
301.633
302.499
303.995
306.35
288.836
290.08
290.917
291.391
291.714
291.981
292.221
292.445
292.658
292.864
293.066
293.265
293.468
293.682
293.917
294.225
294.633
295.14
295.688
296.198
296.645
297.039
297.415
297.8
298.209
298.637
299.081
299.538
300.008
300.494
301.011
301.61
302.46
303.945
306.323
288.836
290.087
290.935
291.417
291.744
292.014
292.255
292.478
292.69
292.895
293.094
293.289
293.484
293.682
293.897
294.138
294.454
294.874
295.389
295.928
296.436
296.9
297.334
297.755
298.177
298.611
299.058
299.519
299.991
300.48
301
301.595
302.431
303.898
306.296
288.835
290.09
290.949
291.439
291.771
292.044
292.287
292.513
292.726
292.931
293.129
293.324
293.515
293.705
293.9
294.114
294.362
294.689
295.112
295.609
296.131
296.641
297.126
297.593
298.054
298.516
298.983
299.457
299.941
300.442
300.972
301.572
302.404
303.859
306.275
288.837
290.101
290.972
291.47
291.806
292.081
292.327
292.555
292.769
292.975
293.174
293.368
293.557
293.744
293.93
294.124
294.343
294.608
294.954
295.384
295.878
296.392
296.9
297.398
297.89
298.378
298.867
299.358
299.857
300.372
300.915
301.523
302.357
303.813
306.257
288.838
290.113
290.996
291.503
291.844
292.124
292.373
292.603
292.821
293.029
293.23
293.425
293.613
293.797
293.977
294.16
294.357
294.587
294.875
295.247
295.7
296.2
296.71
297.218
297.723
298.229
298.736
299.247
299.768
300.303
300.861
301.477
302.313
303.773
306.242
288.844
290.135
291.031
291.544
291.89
292.173
292.426
292.66
292.881
293.092
293.297
293.496
293.688
293.871
294.048
294.223
294.404
294.606
294.852
295.167
295.569
296.043
296.55
297.063
297.578
298.098
298.628
299.166
299.712
300.266
300.838
301.462
302.303
303.767
306.241
288.851
290.158
291.066
291.586
291.936
292.222
292.478
292.714
292.938
293.153
293.361
293.564
293.76
293.947
294.125
294.296
294.468
294.652
294.867
295.138
295.485
295.915
296.404
296.919
297.445
297.983
298.534
299.094
299.657
300.223
300.802
301.433
302.281
303.752
306.237
288.859
290.183
291.105
291.632
291.986
292.276
292.535
292.774
292.999
293.217
293.428
293.634
293.832
294.021
294.2
294.369
294.534
294.707
294.902
295.141
295.45
295.834
296.29
296.791
297.32
297.869
298.433
299.006
299.581
300.16
300.75
301.388
302.24
303.721
306.227
288.866
290.21
291.147
291.681
292.04
292.335
292.597
292.84
293.069
293.289
293.504
293.713
293.914
294.104
294.281
294.447
294.606
294.77
294.952
295.172
295.452
295.813
296.25
296.741
297.266
297.815
298.384
298.966
299.553
300.138
300.731
301.372
302.23
303.717
306.226
288.877
290.244
291.196
291.737
292.101
292.4
292.666
292.912
293.145
293.369
293.589
293.803
294.01
294.203
294.381
294.542
294.692
294.844
295.01
295.211
295.468
295.806
296.232
296.728
297.262
297.814
298.384
298.966
299.551
300.136
300.73
301.371
302.23
303.718
306.226
288.889
290.284
291.25
291.795
292.163
292.466
292.736
292.985
293.22
293.447
293.67
293.89
294.105
294.306
294.489
294.651
294.795
294.935
295.085
295.265
295.494
295.797
296.181
296.655
297.193
297.762
298.344
298.929
299.511
300.093
300.687
301.336
302.205
303.699
306.217
288.9
290.324
291.303
291.853
292.226
292.534
292.807
293.058
293.294
293.522
293.746
293.971
294.192
294.404
294.596
294.763
294.907
295.04
295.176
295.333
295.531
295.797
296.147
296.576
297.082
297.638
298.221
298.813
299.406
299.999
300.602
301.254
302.128
303.646
306.193
288.915
290.376
291.368
291.922
292.299
292.612
292.888
293.142
293.38
293.609
293.838
294.069
294.302
294.529
294.737
294.915
295.065
295.196
295.322
295.458
295.622
295.84
296.152
296.571
297.066
297.619
298.206
298.805
299.403
299.996
300.594
301.244
302.121
303.643
306.194
288.939
290.436
291.435
291.99
292.371
292.688
292.967
293.222
293.461
293.691
293.921
294.158
294.408
294.661
294.899
295.104
295.274
295.42
295.553
295.685
295.832
296.015
296.26
296.605
297.076
297.626
298.213
298.812
299.408
299.998
300.596
301.247
302.126
303.66
306.219
288.958
290.483
291.489
292.048
292.433
292.753
293.035
293.291
293.527
293.751
293.974
294.206
294.458
294.73
295.002
295.248
295.463
295.65
295.813
295.966
296.126
296.314
296.553
296.87
297.278
297.78
298.341
298.921
299.499
300.074
300.664
301.32
302.222
303.778
306.277
288.974
290.524
291.543
292.108
292.499
292.825
293.111
293.368
293.6
293.816
294.026
294.243
294.483
294.752
295.035
295.317
295.589
295.832
296.042
296.233
296.424
296.635
296.891
297.212
297.612
298.087
298.611
299.152
299.691
300.231
300.795
301.43
302.313
303.848
306.301
288.985
290.552
291.587
292.163
292.561
292.894
293.186
293.445
293.675
293.883
294.077
294.272
294.484
294.725
294.997
295.292
295.602
295.899
296.167
296.41
296.643
296.888
297.164
297.489
297.877
298.322
298.806
299.307
299.814
300.332
300.878
301.5
302.366
303.869
306.298
288.993
290.574
291.627
292.213
292.621
292.962
293.26
293.523
293.752
293.955
294.138
294.314
294.496
294.699
294.933
295.208
295.529
295.865
296.179
296.471
296.753
297.035
297.337
297.672
298.051
298.473
298.926
299.399
299.886
300.391
300.932
301.553
302.416
303.896
306.3
288.995
290.587
291.658
292.259
292.677
293.026
293.331
293.597
293.826
294.024
294.199
294.359
294.517
294.686
294.874
295.099
295.377
295.708
296.069
296.425
296.751
297.062
297.385
297.731
298.108
298.517
298.953
299.411
299.89
300.397
300.939
301.557
302.414
303.891
306.295
288.994
290.591
291.685
292.302
292.732
293.092
293.404
293.673
293.902
294.096
294.265
294.416
294.558
294.701
294.851
295.019
295.222
295.473
295.777
296.135
296.535
296.943
297.339
297.718
298.101
298.509
298.943
299.401
299.881
300.389
300.931
301.548
302.406
303.881
306.285
288.993
290.604
291.721
292.357
292.799
293.171
293.492
293.766
293.995