/*--------------------------------*- C++ -*----------------------------------*\
  =========                 |
  \\      /  F ield         | OpenFOAM: The Open Source CFD Toolbox
   \\    /   O peration     | Website:  https://openfoam.org
    \\  /    A nd           | Version:  11
     \\/     M anipulation  |
\*---------------------------------------------------------------------------*/
FoamFile
{
    format      ascii;
    class       volVectorField;
    location    "700";
    object      U;
}
// * * * * * * * * * * * * * * * * * * * * * * * * * * * * * * * * * * * * * //

dimensions      [0 1 -1 0 0 0 0];

internalField   nonuniform List<vector> 
78750
(
(-0.00146797 0.00967418 0.0337586)
(-0.00804696 0.00398857 0.0615786)
(-0.0129777 -0.00669827 0.0620701)
(-0.015117 -0.0171233 0.0591536)
(-0.0153248 -0.0295638 0.0557501)
(-0.0121159 -0.0390277 0.0527255)
(-0.00728837 -0.0457096 0.0504379)
(-0.00115803 -0.0501202 0.0487199)
(0.00565983 -0.0528541 0.0474005)
(0.0127861 -0.0542737 0.0464151)
(0.020094 -0.054747 0.0456474)
(0.0272629 -0.05461 0.0450631)
(0.0343356 -0.05377 0.044606)
(0.0410786 -0.0524716 0.0442174)
(0.0474609 -0.0507977 0.0438808)
(0.053397 -0.0488106 0.0435833)
(0.0587856 -0.0465439 0.0433232)
(0.0636201 -0.0440538 0.043101)
(0.0677615 -0.0414976 0.0428431)
(0.0714438 -0.0384082 0.0426824)
(0.0741281 -0.0357849 0.0424796)
(0.0764966 -0.030279 0.0426752)
(0.0773279 -0.0276393 0.0429075)
(0.0776385 -0.0237237 0.044179)
(0.076977 -0.0190512 0.045591)
(0.0753067 -0.0146026 0.046838)
(0.0724564 -0.0103579 0.0482863)
(0.0688203 -0.00629421 0.0489257)
(0.0636463 -0.00168301 0.0496862)
(0.0575965 0.00352197 0.0506882)
(0.0501758 0.0098929 0.051923)
(0.0411008 0.0150907 0.0547554)
(0.0312705 0.0198308 0.0583446)
(0.0187258 0.0261389 0.0602551)
(0.00569861 0.0304554 0.0391926)
(-8.69151e-05 0.0137712 0.0215976)
(0.000692171 0.0116551 0.0420573)
(0.00275274 -0.00942643 0.0437224)
(0.00562203 -0.0338244 0.0405469)
(0.0107614 -0.057176 0.0352924)
(0.0153141 -0.0759467 0.0307406)
(0.0199876 -0.0890161 0.0273532)
(0.0244174 -0.096363 0.0251694)
(0.0287103 -0.100216 0.023672)
(0.0325348 -0.101677 0.0225622)
(0.0370217 -0.10081 0.0216099)
(0.0398904 -0.099572 0.0212061)
(0.0436484 -0.0967568 0.0208186)
(0.0465702 -0.0930148 0.0205512)
(0.0492265 -0.0885301 0.0203695)
(0.0515898 -0.0834168 0.02026)
(0.0535252 -0.0777308 0.0202406)
(0.0553918 -0.0714976 0.0203254)
(0.0562116 -0.0657322 0.020163)
(0.0569576 -0.0593262 0.0200946)
(0.0573579 -0.052071 0.0202795)
(0.0572879 -0.0442453 0.0207212)
(0.0567653 -0.0359514 0.021314)
(0.0557734 -0.0273791 0.0220634)
(0.0543013 -0.0185692 0.0229942)
(0.0524586 -0.00991045 0.0237176)
(0.0502768 -0.000617808 0.0247178)
(0.0463363 0.0124476 0.0267898)
(0.0435226 0.0193222 0.0279771)
(0.0385504 0.0296388 0.0303944)
(0.0335068 0.0404037 0.0340072)
(0.0267022 0.0538862 0.0379026)
(0.0196314 0.0682418 0.0424811)
(0.0103764 0.0855654 0.0442137)
(0.00191058 0.0805452 0.0282833)
(-0.000279821 -0.00790673 0.0131041)
(0.00218777 -0.0394896 0.0221482)
(0.00661655 -0.076603 0.0214544)
(0.0116506 -0.106366 0.0189452)
(0.0162133 -0.125365 0.0173018)
(0.0197711 -0.133972 0.0168103)
(0.022322 -0.136615 0.0168128)
(0.0246238 -0.136877 0.0167535)
(0.0261851 -0.135908 0.0167233)
(0.0278432 -0.133288 0.0167432)
(0.0291134 -0.129577 0.0167784)
(0.030349 -0.124991 0.0167705)
(0.0313744 -0.119819 0.0167359)
(0.0323109 -0.114081 0.0166771)
(0.0331473 -0.107858 0.0165968)
(0.0338711 -0.101212 0.0164935)
(0.0345339 -0.0941823 0.0163745)
(0.0348113 -0.0865022 0.0163583)
(0.0355284 -0.0773027 0.0168023)
(0.0355591 -0.0682875 0.0172268)
(0.0352356 -0.059683 0.0174727)
(0.0348201 -0.0509179 0.0177013)
(0.0342293 -0.0417204 0.0180758)
(0.0333476 -0.0321808 0.0186106)
(0.0322547 -0.0225187 0.0192844)
(0.0310972 -0.0123559 0.020236)
(0.029067 0.000733031 0.0218076)
(0.0275225 0.0088785 0.0228468)
(0.0253617 0.0203677 0.0245236)
(0.0228793 0.0338548 0.02673)
(0.0194532 0.0501001 0.0291738)
(0.0155518 0.0679071 0.0329611)
(0.010841 0.0869108 0.0368585)
(0.00504691 0.106349 0.0379963)
(0.000439526 0.0912177 0.0214733)
(1.77642e-05 -0.0159585 0.00901361)
(0.00233427 -0.0620209 0.0143834)
(0.00565483 -0.102149 0.0145143)
(0.00860603 -0.124566 0.0140526)
(0.0107786 -0.134694 0.0135789)
(0.0124148 -0.13931 0.0130498)
(0.0138066 -0.141482 0.0124672)
(0.0151635 -0.141848 0.011918)
(0.0163348 -0.141016 0.0115182)
(0.0175462 -0.139023 0.0110904)
(0.0186601 -0.136079 0.0106996)
(0.019736 -0.132284 0.0103502)
(0.0207556 -0.127688 0.0100407)
(0.0216901 -0.122345 0.00976766)
(0.0225196 -0.116286 0.00952973)
(0.0232211 -0.109531 0.00932241)
(0.0237548 -0.102121 0.00913191)
(0.0241301 -0.094136 0.0089308)
(0.0243393 -0.0856324 0.00867744)
(0.0243851 -0.0762679 0.00846686)
(0.0244569 -0.0660643 0.00854776)
(0.0241767 -0.0554074 0.00880357)
(0.0237336 -0.0444424 0.00928275)
(0.0230941 -0.0335056 0.0099814)
(0.0223419 -0.0230425 0.0108789)
(0.0214295 -0.0113546 0.012288)
(0.0201203 0.00267679 0.0143864)
(0.0189649 0.0118344 0.015842)
(0.0172798 0.0244293 0.0181373)
(0.0153636 0.0387683 0.0210847)
(0.013337 0.0551986 0.0247649)
(0.0104032 0.0759634 0.029034)
(0.00713253 0.0991128 0.0327672)
(0.00285204 0.119459 0.0324134)
(-2.5515e-05 0.0937804 0.0155291)
(9.66037e-05 -0.0288119 0.00616644)
(0.00207016 -0.0884694 0.00930422)
(0.00439193 -0.130518 0.00908077)
(0.00642106 -0.151714 0.00850522)
(0.00815676 -0.161093 0.00815431)
(0.00970171 -0.164855 0.00799062)
(0.0112468 -0.165584 0.00794501)
(0.0125741 -0.164737 0.00792888)
(0.0139463 -0.162454 0.00789212)
(0.0151452 -0.159027 0.00784815)
(0.0162611 -0.154588 0.00779118)
(0.0172672 -0.149226 0.00772122)
(0.0181533 -0.142993 0.00764227)
(0.0189102 -0.135923 0.00756031)
(0.0195299 -0.128049 0.00748529)
(0.0200023 -0.119404 0.00743029)
(0.0203276 -0.110029 0.00740933)
(0.0204594 -0.0999613 0.00742556)
(0.0205109 -0.089203 0.0074595)
(0.02025 -0.0782382 0.00722474)
(0.0198577 -0.0672236 0.00707933)
(0.0194659 -0.0560267 0.00713505)
(0.0189455 -0.044782 0.00738269)
(0.0183239 -0.0337562 0.00784528)
(0.0176742 -0.0231645 0.00861624)
(0.0167999 -0.0115123 0.00974206)
(0.0157326 0.00166383 0.0113127)
(0.014824 0.0107436 0.0125412)
(0.0135739 0.0229673 0.0145471)
(0.0122072 0.0375167 0.017306)
(0.0106297 0.0558582 0.0210548)
(0.00829921 0.0789601 0.025328)
(0.00556079 0.104876 0.0287313)
(0.00211095 0.125793 0.0273808)
(-3.41307e-05 0.0938362 0.012814)
(0.000155224 -0.0359641 0.00432648)
(0.00160623 -0.100391 0.00654993)
(0.00324654 -0.140101 0.00677231)
(0.00467045 -0.157537 0.00670473)
(0.00584084 -0.164609 0.00655976)
(0.00686793 -0.167393 0.00637279)
(0.00785657 -0.167934 0.00614113)
(0.00874022 -0.167026 0.00590029)
(0.00962633 -0.164701 0.00563084)
(0.0104443 -0.161227 0.00536052)
(0.0112239 -0.156745 0.00509379)
(0.0119528 -0.151332 0.00483502)
(0.0126219 -0.145031 0.00458472)
(0.0132202 -0.137875 0.00434023)
(0.0137363 -0.129903 0.00410083)
(0.0141619 -0.121153 0.00387042)
(0.0144877 -0.111674 0.00365987)
(0.0147332 -0.101523 0.00349665)
(0.014792 -0.0906605 0.00348133)
(0.0149921 -0.0791999 0.00394194)
(0.0148834 -0.0676035 0.00431362)
(0.0147518 -0.0560125 0.00465013)
(0.0145367 -0.0444941 0.00501013)
(0.0142427 -0.0331154 0.00545694)
(0.0138088 -0.0217876 0.00607511)
(0.0133018 -0.00959234 0.00702708)
(0.0126329 0.00335512 0.00832891)
(0.0120122 0.0125224 0.0094624)
(0.0111449 0.0244676 0.011416)
(0.0100803 0.0389668 0.0143191)
(0.00883959 0.0579735 0.0183941)
(0.0068307 0.0838198 0.0227873)
(0.00452016 0.112037 0.0257312)
(0.00167579 0.131992 0.023876)
(-1.07236e-05 0.0941031 0.0110616)
(9.98869e-05 -0.0431658 0.00277326)
(0.00114838 -0.113869 0.00414722)
(0.00239359 -0.155301 0.00427262)
(0.00357357 -0.172996 0.0042218)
(0.00466436 -0.179889 0.00417394)
(0.00571351 -0.182315 0.00413532)
(0.00676855 -0.182321 0.00410208)
(0.00773418 -0.18074 0.00407076)
(0.00869416 -0.177714 0.00402341)
(0.00958022 -0.17349 0.00396817)
(0.0104152 -0.168158 0.00390358)
(0.0111815 -0.16178 0.00382305)
(0.0118715 -0.154412 0.00372539)
(0.0124787 -0.146097 0.00361591)
(0.0129921 -0.136873 0.0034999)
(0.0134027 -0.126816 0.00338259)
(0.0136995 -0.116025 0.00326346)
(0.0139333 -0.104617 0.00312017)
(0.0139601 -0.0928517 0.00284685)
(0.0139795 -0.0809621 0.0027466)
(0.0139585 -0.0691101 0.002875)
(0.0137602 -0.0572316 0.00300761)
(0.0134963 -0.0454409 0.00317218)
(0.0131487 -0.0338572 0.00339974)
(0.012681 -0.0224418 0.00370878)
(0.01214 -0.0104682 0.00438549)
(0.0115235 0.0019996 0.00539476)
(0.0109925 0.0111729 0.00629609)
(0.0102718 0.0233086 0.00787434)
(0.00939349 0.0385771 0.0103308)
(0.0082023 0.059213 0.0142213)
(0.00641753 0.0864038 0.0189603)
(0.00417192 0.116133 0.0223054)
(0.00162821 0.135836 0.0207153)
(8.33265e-05 0.0947585 0.00913369)
(0.000110029 -0.0467387 0.0019687)
(0.000972671 -0.119246 0.00328446)
(0.00197284 -0.15927 0.00368919)
(0.00287655 -0.17545 0.00377003)
(0.00368607 -0.181661 0.00372412)
(0.00447986 -0.183818 0.00361777)
(0.00524335 -0.183744 0.00347695)
(0.00599778 -0.182087 0.00330299)
(0.00672328 -0.17902 0.00310055)
(0.00741613 -0.174739 0.00288359)
(0.00807358 -0.169332 0.00265312)
(0.00868881 -0.162868 0.00240931)
(0.00925608 -0.155409 0.00215445)
(0.0097707 -0.146994 0.0018939)
(0.0102287 -0.137659 0.00163715)
(0.0106245 -0.127482 0.00140024)
(0.0109637 -0.116571 0.00120707)
(0.0111773 -0.105043 0.00109938)
(0.0114206 -0.0930066 0.0011687)
(0.0114948 -0.0805965 0.00107457)
(0.0114568 -0.0679373 0.000816269)
(0.0113872 -0.055389 0.000667066)
(0.0112349 -0.0430856 0.000669584)
(0.0110275 -0.0309632 0.000853623)
(0.0107477 -0.0188638 0.00126695)
(0.0103872 -0.00678427 0.00194652)
(0.00996549 0.00482925 0.00290155)
(0.00957493 0.0135547 0.00387737)
(0.00901613 0.0253588 0.00570221)
(0.00826813 0.0409273 0.00844324)
(0.00722176 0.0628392 0.0122042)
(0.00549736 0.0930096 0.016189)
(0.00343082 0.12375 0.0188434)
(0.00119993 0.141769 0.0171966)
(-2.06296e-05 0.0958586 0.00714494)
(6.09553e-05 -0.0511515 0.00133538)
(0.000700895 -0.127867 0.00229311)
(0.00151612 -0.169345 0.00263462)
(0.00231577 -0.185834 0.00277101)
(0.00307675 -0.191995 0.00282584)
(0.00384544 -0.193989 0.00284049)
(0.00458681 -0.19368 0.00283076)
(0.00532623 -0.191613 0.00280342)
(0.00602222 -0.188062 0.00276422)
(0.00668734 -0.183215 0.00271195)
(0.00731313 -0.177178 0.00264289)
(0.00789593 -0.170019 0.00255233)
(0.00843022 -0.161787 0.00243445)
(0.00890968 -0.152538 0.00228277)
(0.00932992 -0.142333 0.00209086)
(0.00968891 -0.13125 0.00185477)
(0.00997645 -0.119394 0.00157733)
(0.0102209 -0.10692 0.00127143)
(0.010345 -0.0940528 0.000951425)
(0.0104658 -0.0810291 0.000658019)
(0.0104701 -0.0679638 0.000352184)
(0.0104731 -0.055266 0.000139648)
(0.0103574 -0.0429384 2.39082e-05)
(0.0101763 -0.0309019 4.15831e-05)
(0.00991899 -0.0189201 0.000236731)
(0.00957522 -0.00698345 0.000651072)
(0.00925438 0.00453674 0.00128803)
(0.00894481 0.0135567 0.00202856)
(0.0083217 0.0259534 0.00347581)
(0.00749104 0.042483 0.00609845)
(0.00630926 0.0663495 0.00984728)
(0.00465923 0.0981254 0.013902)
(0.00285257 0.129305 0.0162154)
(0.00101462 0.145643 0.0144489)
(1.82401e-05 0.0961498 0.00572442)
(7.08617e-05 -0.0529165 0.00107209)
(0.000634367 -0.130513 0.00209296)
(0.00132199 -0.171303 0.00254026)
(0.00196187 -0.187203 0.00268677)
(0.0025599 -0.193156 0.00271278)
(0.00315872 -0.19507 0.00268411)
(0.00373998 -0.194695 0.00262359)
(0.00432225 -0.192563 0.00253685)
(0.00488426 -0.18896 0.00243422)
(0.00543418 -0.184065 0.00232067)
(0.00596717 -0.177977 0.0021968)
(0.00648003 -0.17076 0.00206142)
(0.00697013 -0.162454 0.00191284)
(0.00743363 -0.153123 0.00174922)
(0.00786541 -0.142833 0.00156768)
(0.00826097 -0.131659 0.00136591)
(0.00862167 -0.1197 0.00114437)
(0.00891053 -0.107112 0.000911358)
(0.00920851 -0.0941317 0.000694063)
(0.00936074 -0.0808471 0.000435919)
(0.00947559 -0.0673551 0.000129899)
(0.00949848 -0.0538894 -0.000205135)
(0.00945757 -0.0407079 -0.000485166)
(0.00933691 -0.027897 -0.000652005)
(0.00912602 -0.0151494 -0.000644928)
(0.00878627 -0.0027915 -0.00042634)
(0.00851383 0.00653488 -7.9691e-05)
(0.00815231 0.0174931 0.0006486)
(0.00755404 0.03051 0.00196909)
(0.00672275 0.0479938 0.00416183)
(0.00567096 0.0725095 0.00764325)
(0.00424043 0.104503 0.0116727)
(0.00267422 0.134851 0.0140256)
(0.00104305 0.149307 0.012531)
(5.16047e-05 0.0970861 0.00487781)
(3.31275e-05 -0.0559926 0.000837765)
(0.000492242 -0.136927 0.00166213)
(0.00112494 -0.178866 0.00205501)
(0.00175261 -0.194931 0.00223182)
(0.00236039 -0.200819 0.00231231)
(0.00297788 -0.202616 0.00234636)
(0.00358053 -0.202088 0.00235212)
(0.00418371 -0.199754 0.00234049)
(0.00476246 -0.195905 0.00231958)
(0.00532213 -0.190713 0.00229285)
(0.00585538 -0.184273 0.00225893)
(0.00635787 -0.176659 0.00221382)
(0.00682577 -0.167925 0.00215199)
(0.00725669 -0.158106 0.00206608)
(0.00765389 -0.147271 0.00194859)
(0.00802048 -0.135511 0.00179059)
(0.00835131 -0.122925 0.00158143)
(0.00864229 -0.109625 0.00131212)
(0.00886362 -0.0957872 0.000981551)
(0.00905131 -0.0816511 0.000603329)
(0.00913397 -0.0675442 0.000233545)
(0.0092135 -0.0537779 -0.000123978)
(0.00922355 -0.0404163 -0.000464917)
(0.00918104 -0.0274296 -0.000751679)
(0.00907042 -0.0144295 -0.000937423)
(0.00886216 -0.00172789 -0.000981685)
(0.00861523 0.00790827 -0.000881876)
(0.00823543 0.0194118 -0.000485143)
(0.00770822 0.0330213 0.000418782)
(0.0069643 0.050913 0.0021694)
(0.00592978 0.0761181 0.00515323)
(0.00442799 0.10908 0.00897371)
(0.00275684 0.139978 0.0115537)
(0.00106787 0.153734 0.0106972)
(4.43958e-05 0.0990084 0.00415436)
(5.83994e-05 -0.0571464 0.000711225)
(0.000538335 -0.138883 0.00156504)
(0.00114836 -0.180689 0.00198666)
(0.00172627 -0.196606 0.00213022)
(0.00227846 -0.202451 0.00216209)
(0.00283562 -0.204218 0.00214378)
(0.00337872 -0.20364 0.00209669)
(0.00392176 -0.201227 0.00202828)
(0.00444424 -0.19727 0.00194956)
(0.00495169 -0.191947 0.00186608)
(0.00543904 -0.185357 0.00177943)
(0.00590369 -0.177572 0.00168977)
(0.00634343 -0.168649 0.0015973)
(0.00675692 -0.158687 0.00150283)
(0.00713332 -0.147838 0.00140613)
(0.00746445 -0.136062 0.00129606)
(0.00774766 -0.123421 0.00116306)
(0.00798027 -0.110007 0.000994234)
(0.00817845 -0.096009 0.000782201)
(0.00833181 -0.0817237 0.000523567)
(0.0084852 -0.0674229 0.00021549)
(0.00855276 -0.0532259 -0.000118179)
(0.00857302 -0.0392832 -0.000464042)
(0.00851226 -0.0256264 -0.000793379)
(0.00836537 -0.0119786 -0.00106675)
(0.00812506 0.00113323 -0.00123292)
(0.00785684 0.0112151 -0.00124952)
(0.00747212 0.0232498 -0.00101545)
(0.0069629 0.0377338 -0.000325492)
(0.00622817 0.0571837 0.00108635)
(0.00515966 0.0844793 0.00346568)
(0.00360733 0.118859 0.006467)
(0.00202251 0.14872 0.00845685)
(0.000602688 0.159584 0.00781385)
(-7.99636e-05 0.10009 0.00281813)
(3.45236e-05 -0.0599203 0.00062518)
(0.00048993 -0.144716 0.00141639)
(0.00110078 -0.187381 0.0018222)
(0.00168878 -0.203334 0.00197175)
(0.00225547 -0.20908 0.00201741)
(0.00282876 -0.210724 0.0020183)
(0.00338529 -0.209996 0.00199564)
(0.00393796 -0.207396 0.00195822)
(0.00446516 -0.20322 0.00191439)
(0.00497163 -0.197647 0.00186755)
(0.00545133 -0.190776 0.00181659)
(0.00590096 -0.182684 0.00175826)
(0.00631748 -0.17344 0.00168834)
(0.00669664 -0.163059 0.00160076)
(0.00703061 -0.151489 0.00148595)
(0.00731041 -0.13894 0.00134368)
(0.00754149 -0.12555 0.00117055)
(0.00772649 -0.111493 0.000963059)
(0.00786045 -0.0970072 0.000725738)
(0.00797678 -0.0822989 0.000469494)
(0.00804955 -0.0674928 0.000187001)
(0.00805861 -0.0527415 -0.000112066)
(0.00802865 -0.0383269 -0.000417162)
(0.00788917 -0.0241047 -0.000718921)
(0.00761077 -0.00994837 -0.000988266)
(0.00731389 0.00342764 -0.00118192)
(0.00705284 0.0139192 -0.00123577)
(0.00661496 0.0264506 -0.00101759)
(0.00599294 0.041695 -0.000281805)
(0.00517601 0.0623552 0.00122673)
(0.00419039 0.0911423 0.00354722)
(0.00297894 0.12614 0.00603352)
(0.00179055 0.154626 0.00730214)
(0.000699069 0.16293 0.00638667)
(3.08586e-05 0.100516 0.00221859)
(6.21744e-05 -0.061184 0.00055687)
(0.00054408 -0.147006 0.0014076)
(0.00112269 -0.189665 0.00184128)
(0.00165966 -0.205529 0.00196799)
(0.00217123 -0.211231 0.0019813)
(0.00268618 -0.212816 0.00194964)
(0.00318486 -0.211994 0.00189745)
(0.00367766 -0.209262 0.00183182)
(0.00414675 -0.204916 0.00176125)
(0.00459562 -0.199141 0.00168922)
(0.00501938 -0.192038 0.00161458)
(0.00541534 -0.183685 0.00153391)
(0.00578002 -0.174147 0.00144288)
(0.00611031 -0.163484 0.00133605)
(0.00641043 -0.151787 0.00120936)
(0.00668583 -0.139143 0.00105955)
(0.00692851 -0.125664 0.000888581)
(0.00714579 -0.111517 0.00070771)
(0.00733366 -0.0968953 0.00050262)
(0.00747214 -0.0819427 0.00025154)
(0.00756066 -0.0668418 -4.00839e-05)
(0.007625 -0.051772 -0.000357262)
(0.00763834 -0.0367441 -0.000682938)
(0.00757698 -0.021332 -0.00101754)
(0.00740858 -0.00638166 -0.00133192)
(0.00727502 0.00622216 -0.00159249)
(0.00715347 0.0173228 -0.00176863)
(0.00682725 0.0313449 -0.00175244)
(0.00629344 0.0476614 -0.00125635)
(0.00555092 0.0684934 0.000110684)
(0.00466688 0.0967121 0.00259909)
(0.0035724 0.131099 0.00551777)
(0.00237139 0.159251 0.00713311)
(0.00106651 0.166965 0.00644006)
(8.90466e-05 0.103108 0.00248651)
(5.92723e-05 -0.0639739 0.000564264)
(0.000518508 -0.152495 0.00147612)
(0.00106264 -0.195641 0.00192264)
(0.00156379 -0.211412 0.00205509)
(0.00204209 -0.216993 0.00207999)
(0.00252467 -0.218453 0.00206751)
(0.00299244 -0.217479 0.00204214)
(0.0034529 -0.21456 0.00201235)
(0.00389034 -0.210001 0.00198337)
(0.00430741 -0.203987 0.00195582)
(0.00469983 -0.196623 0.00192465)
(0.00506573 -0.187988 0.0018812)
(0.00540421 -0.178146 0.00181513)
(0.00571735 -0.167156 0.00171588)
(0.00600966 -0.155077 0.00157384)
(0.00628527 -0.141992 0.00138149)
(0.00654647 -0.128041 0.00113536)
(0.00679 -0.113387 0.000837571)
(0.00701072 -0.0982373 0.000502462)
(0.00721994 -0.0827979 0.000148989)
(0.00734756 -0.0672566 -0.000199526)
(0.00750305 -0.0518879 -0.000581861)
(0.00754718 -0.036606 -0.000952253)
(0.00757642 -0.0210485 -0.00129174)
(0.00761475 -0.00575441 -0.00160007)
(0.00765798 0.00638399 -0.00186782)
(0.00762467 0.0186309 -0.00215933)
(0.00739106 0.0335891 -0.00242665)
(0.00698177 0.0511373 -0.00246018)
(0.00626181 0.0732439 -0.00185926)
(0.00514962 0.102611 -3.73107e-05)
(0.00359514 0.138342 0.00286104)
(0.00206623 0.167224 0.00500615)
(0.000662692 0.174061 0.00497507)
(-0.000128845 0.105616 0.00135234)
(7.28937e-05 -0.0654749 0.000605169)
(0.000486252 -0.154891 0.00160074)
(0.000934175 -0.197887 0.00205577)
(0.00133457 -0.213514 0.00217476)
(0.00171505 -0.219034 0.00218979)
(0.00209881 -0.22043 0.00217432)
(0.00247223 -0.219357 0.00215388)
(0.00283813 -0.216304 0.00213761)
(0.00318605 -0.211579 0.00212992)
(0.00351705 -0.205372 0.00213129)
(0.00382856 -0.197793 0.00213616)
(0.00412005 -0.18893 0.00213464)
(0.00439183 -0.178873 0.00211413)
(0.00464564 -0.167725 0.00205973)
(0.00488569 -0.155587 0.0019556)
(0.00511907 -0.142532 0.00178681)
(0.00535198 -0.128626 0.0015419)
(0.00558434 -0.113994 0.00121815)
(0.0058073 -0.0988108 0.000825998)
(0.00598663 -0.0832434 0.000386946)
(0.00620992 -0.0674409 -7.93153e-05)
(0.00628924 -0.0514668 -0.000517444)
(0.00636347 -0.0355958 -0.000945342)
(0.00635583 -0.019895 -0.00131318)
(0.00630954 -0.0047851 -0.00159401)
(0.00624282 0.00756698 -0.00178912)
(0.00605964 0.0215563 -0.00196113)
(0.00570899 0.0375133 -0.0020685)
(0.00521348 0.0570316 -0.0021269)
(0.00442524 0.082389 -0.0020312)
(0.00323215 0.114924 -0.00137986)
(0.00172689 0.151057 0.000126458)
(0.00059535 0.176748 0.00152327)
(-0.000105964 0.179186 0.0018197)
(-0.000184584 0.105169 0.000361836)
(4.51178e-05 -0.0678794 0.000726528)
(0.000372966 -0.15941 0.00180502)
(0.000726067 -0.20263 0.00225659)
(0.00104005 -0.218121 0.00238197)
(0.00134129 -0.223539 0.00241858)
(0.00164818 -0.224838 0.00243639)
(0.0019498 -0.223639 0.00245922)
(0.00224581 -0.220439 0.00249802)
(0.00252938 -0.21555 0.00255589)
(0.00280065 -0.209169 0.00263252)
(0.00305834 -0.201411 0.00272076)
(0.00330279 -0.192363 0.00280791)
(0.00353453 -0.182107 0.00287663)
(0.00375366 -0.170724 0.00290494)
(0.00395953 -0.158304 0.00286769)
(0.00415267 -0.144948 0.00274037)
(0.00433763 -0.13074 0.00250356)
(0.0045208 -0.115739 0.00214684)
(0.00470375 -0.10007 0.00167483)
(0.00487532 -0.083981 0.00111041)
(0.00501413 -0.0676941 0.000499478)
(0.0051163 -0.051255 -8.2376e-05)
(0.00515787 -0.034701 -0.000646952)
(0.00510224 -0.0182811 -0.0011241)
(0.00492215 -0.00262689 -0.00145868)
(0.00466926 0.0104834 -0.00160639)
(0.0042702 0.0252145 -0.00154579)
(0.00376554 0.0418651 -0.00119178)
(0.00316343 0.0623967 -0.000550393)
(0.00250479 0.0892384 0.00019892)
(0.00182134 0.122831 0.000781659)
(0.00113128 0.157626 0.00116692)
(0.000588088 0.180069 0.00129674)
(0.000212673 0.179704 0.00104491)
(2.42319e-05 0.104573 0.000321697)
(4.6781e-05 -0.0690042 0.000819516)
(0.000309869 -0.161211 0.00193732)
(0.000555575 -0.204243 0.00234864)
(0.000766216 -0.219603 0.00245426)
(0.000968402 -0.224985 0.00249189)
(0.00117756 -0.226256 0.00252388)
(0.00138883 -0.225001 0.00257202)
(0.00160152 -0.22173 0.00264806)
(0.00181293 -0.216756 0.00275642)
(0.00202372 -0.210282 0.00289828)
(0.0022344 -0.202426 0.00306786)
(0.00244657 -0.19328 0.0032529)
(0.0026619 -0.182933 0.00343506)
(0.002882 -0.171471 0.0035892)
(0.00310774 -0.158989 0.00368372)
(0.00333875 -0.14559 0.0036828)
(0.00357455 -0.13138 0.00355124)
(0.00381876 -0.116459 0.00326176)
(0.00407921 -0.100895 0.00280169)
(0.0043604 -0.0847224 0.00217434)
(0.00464815 -0.068078 0.00140692)
(0.00491297 -0.0511569 0.000539207)
(0.00512634 -0.0338975 -0.000307636)
(0.00526181 -0.0165781 -0.00109858)
(0.0052972 0.000134182 -0.00178348)
(0.00523962 0.013901 -0.00222683)
(0.00505936 0.0294784 -0.00247681)
(0.00473993 0.0466004 -0.00232944)
(0.00429357 0.0667064 -0.00155537)
(0.0038043 0.0921814 -4.81398e-05)
(0.00336202 0.124393 0.00180019)
(0.00278324 0.159146 0.00313833)
(0.00198065 0.182765 0.00343201)
(0.000959784 0.182669 0.00273563)
(8.51814e-05 0.106776 0.000997873)
(3.59551e-05 -0.0709239 0.000961169)
(0.000238857 -0.164683 0.00210876)
(0.000425624 -0.207812 0.00246096)
(0.000589099 -0.223047 0.00254407)
(0.000751735 -0.228363 0.00258327)
(0.000925412 -0.229597 0.00263042)
(0.00110737 -0.22831 0.00270437)
(0.00129738 -0.225021 0.00281739)
(0.00149401 -0.220044 0.00297527)
(0.00169844 -0.213587 0.00318071)
(0.00191171 -0.205769 0.00342998)
(0.00213555 -0.196681 0.00371278)
(0.00237132 -0.186399 0.00401215)
(0.00261983 -0.174991 0.00430318)
(0.00288106 -0.162529 0.00455235)
(0.00315426 -0.149088 0.00471827)
(0.00343794 -0.134764 0.00475458)
(0.00373053 -0.119677 0.00461629)
(0.0040329 -0.103963 0.00426917)
(0.0043531 -0.087711 0.00369399)
(0.00470086 -0.0709304 0.0028913)
(0.0050707 -0.0536218 0.00189415)
(0.00544516 -0.0358466 0.000770775)
(0.00580085 -0.0178962 -0.000377476)
(0.00611573 -0.000421476 -0.00144964)
(0.00629858 0.0139547 -0.00225778)
(0.00639449 0.030622 -0.00310426)
(0.00628016 0.0489522 -0.00374926)
(0.00591399 0.0700922 -0.00390163)
(0.00521716 0.0961481 -0.00306534)
(0.00422685 0.129115 -0.000947611)
(0.00293003 0.16583 0.00163201)
(0.00167997 0.191048 0.00306286)
(0.000573103 0.190741 0.00285054)
(-0.000117531 0.110106 0.000556091)
(3.79542e-05 -0.0719272 0.00107611)
(0.000189832 -0.166156 0.00216805)
(0.000307651 -0.209204 0.00241095)
(0.000413772 -0.224403 0.00244127)
(0.00052631 -0.22973 0.0024562)
(0.000653362 -0.230985 0.00249368)
(0.000792304 -0.229715 0.00256945)
(0.000941834 -0.226447 0.00269459)
(0.00110053 -0.221495 0.00287551)
(0.00126829 -0.21507 0.00311626)
(0.00144528 -0.207291 0.00341581)
(0.00163226 -0.198248 0.00376759)
(0.00182959 -0.188015 0.00415873)
(0.00203739 -0.176665 0.00456864)
(0.00225569 -0.164268 0.00496747)
(0.00248463 -0.150902 0.00531569)
(0.00272428 -0.136654 0.00556507)
(0.00297423 -0.121623 0.00566218)
(0.00323244 -0.105928 0.00555549)
(0.00349744 -0.0896763 0.00520059)
(0.00377258 -0.0729144 0.00456895)
(0.00406475 -0.0556165 0.00365975)
(0.00437482 -0.0377223 0.00251271)
(0.00467964 -0.0193633 0.00123124)
(0.00491132 -0.00119344 -1.99672e-05)
(0.00498979 0.0144829 -0.00100194)
(0.00492439 0.032541 -0.00199362)
(0.0046689 0.0529406 -0.00294806)
(0.00416239 0.0771053 -0.00385144)
(0.00328706 0.106578 -0.00432864)
(0.00206187 0.141605 -0.00367005)
(0.000785155 0.177225 -0.00185786)
(3.96362e-05 0.198624 -0.000299651)
(-0.000293564 0.194173 0.000280742)
(-0.000195122 0.109294 -0.000231516)
(1.12729e-05 -0.0734807 0.00124151)
(7.98102e-05 -0.168905 0.00226712)
(0.000107165 -0.212075 0.00240273)
(0.000144174 -0.227273 0.0024043)
(0.000197895 -0.232619 0.00241664)
(0.000273433 -0.233894 0.0024652)
(0.000366799 -0.232632 0.00256303)
(0.000475236 -0.22938 0.00271909)
(0.000596748 -0.224451 0.00293884)
(0.000729756 -0.218061 0.00322541)
(0.000873477 -0.210331 0.00357799)
(0.0010281 -0.201347 0.00399142)
(0.00119338 -0.191179 0.00445497)
(0.00136865 -0.179885 0.00495085)
(0.00155291 -0.167523 0.00545268)
(0.0017449 -0.154157 0.00592459)
(0.00194335 -0.139859 0.00632148)
(0.00214714 -0.12472 0.00659173)
(0.00235415 -0.10885 0.00668254)
(0.00256116 -0.092346 0.0065428)
(0.00276538 -0.0752691 0.00613132)
(0.00296703 -0.0576042 0.00542583)
(0.00316598 -0.039239 0.0044299)
(0.00332651 -0.0200328 0.00319186)
(0.00336601 -0.000691401 0.00189348)
(0.00328207 0.0165574 0.000855418)
(0.00301246 0.0358796 5.47193e-05)
(0.00260257 0.0575505 -0.000510321)
(0.00208146 0.0833398 -0.00102785)
(0.00150823 0.114547 -0.00170592)
(0.00092058 0.149819 -0.0023128)
(0.000438212 0.182576 -0.00230029)
(0.000177795 0.200386 -0.00182299)
(5.08318e-05 0.194374 -0.00100856)
(-1.12991e-05 0.108101 -0.000324023)
(1.58751e-05 -0.0740851 0.00133582)
(-2.74168e-05 -0.169696 0.00215648)
(-0.000160821 -0.212823 0.00211611)
(-0.000241479 -0.228112 0.00210785)
(-0.000284394 -0.233606 0.00213028)
(-0.000294664 -0.234998 0.00220538)
(-0.000276118 -0.233835 0.00234362)
(-0.000230059 -0.230675 0.00255054)
(-0.000158709 -0.225832 0.0028307)
(-6.33991e-05 -0.219524 0.00318675)
(5.53506e-05 -0.211878 0.00361893)
(0.000197928 -0.202981 0.0041238)
(0.000364213 -0.1929 0.00469217)
(0.000553668 -0.181694 0.00530721)
(0.000765465 -0.169423 0.00594259)
(0.000998669 -0.15615 0.00656129)
(0.00125236 -0.141943 0.00711574)
(0.00152595 -0.126884 0.00755012)
(0.00181869 -0.111059 0.00780529)
(0.0021297 -0.0945411 0.00782123)
(0.00245974 -0.0773828 0.00754505)
(0.0028138 -0.0595658 0.00693794)
(0.00319887 -0.0408881 0.00597422)
(0.00358423 -0.0208507 0.00463372)
(0.00387989 -0.000202561 0.00307331)
(0.00404399 0.0178962 0.00178717)
(0.00404562 0.0385394 0.000640079)
(0.00379374 0.0609574 -5.1627e-05)
(0.0034597 0.086356 -7.56645e-05)
(0.00311901 0.116515 0.000253236)
(0.00281959 0.151089 0.000408707)
(0.00235825 0.184258 0.000296262)
(0.00169753 0.203136 0.000176716)
(0.000852647 0.197018 8.76817e-05)
(0.000106829 0.109885 0.00022654)
(-1.77627e-06 -0.0749538 0.00146627)
(-0.000125222 -0.170567 0.00204365)
(-0.000319458 -0.21384 0.00178147)
(-0.00045638 -0.229594 0.00173768)
(-0.000556832 -0.23535 0.00175624)
(-0.000617601 -0.236941 0.001847)
(-0.000640378 -0.235979 0.00201486)
(-0.000623965 -0.23303 0.00226339)
(-0.000570445 -0.228413 0.00259605)
(-0.000480906 -0.222348 0.00301543)
(-0.000356023 -0.214967 0.00352362)
(-0.000195876 -0.206352 0.00412061)
(-1.48116e-06 -0.196563 0.00480132)
(0.00022541 -0.18565 0.00555321)
(0.000482605 -0.17366 0.00635363)
(0.000767978 -0.160641 0.00716715)
(0.00108019 -0.146652 0.00794432)
(0.00141873 -0.131767 0.00862331)
(0.00178431 -0.116076 0.00913391)
(0.00218061 -0.0996565 0.0093998)
(0.00261565 -0.0825845 0.00935031)
(0.0031017 -0.0648804 0.00892683)
(0.00365581 -0.046321 0.00807369)
(0.00427338 -0.0259315 0.00667183)
(0.00489924 -0.0040249 0.00475792)
(0.00536251 0.0154116 0.00289597)
(0.00554059 0.0382316 0.000939739)
(0.0055577 0.0623976 -0.000874018)
(0.00513482 0.088896 -0.00174255)
(0.00445819 0.119687 -0.00137748)
(0.0035706 0.155467 -0.000179817)
(0.00244873 0.1909 0.000887106)
(0.0013971 0.211145 0.00126237)
(0.000544682 0.204868 0.00104398)
(-7.08168e-05 0.11366 0.000309784)
(-2.9158e-05 -0.0750828 0.00148378)
(-0.000247895 -0.170614 0.00176206)
(-0.000502 -0.213896 0.00125871)
(-0.000707179 -0.229759 0.000989087)
(-0.000844801 -0.235743 0.000982582)
(-0.000944721 -0.237578 0.00107841)
(-0.00100276 -0.23688 0.00125989)
(-0.00101762 -0.2342 0.00152833)
(-0.000991526 -0.229857 0.00188773)
(-0.000926115 -0.224065 0.0023423)
(-0.00082283 -0.21696 0.00289806)
(-0.000682944 -0.208617 0.00356165)
(-0.000509061 -0.199092 0.00433635)
(-0.000304976 -0.188434 0.00521929)
(-7.51286e-05 -0.176688 0.00619763)
(0.000176525 -0.163908 0.00724414)
(0.0004471 -0.150157 0.0083138)
(0.000734705 -0.135512 0.00934285)
(0.00103906 -0.120062 0.0102507)
(0.00136396 -0.103889 0.0109432)
(0.00171995 -0.0870756 0.0113272)
(0.00212289 -0.0696504 0.0113212)
(0.0025903 -0.0513743 0.0108485)
(0.00312382 -0.0309144 0.00971139)
(0.00368192 -0.00830992 0.00785572)
(0.00399902 0.0132964 0.00568732)
(0.00421092 0.0384157 0.00268059)
(0.00408109 0.0660135 -0.00013078)
(0.00356885 0.0960391 -0.0023819)
(0.00263098 0.129631 -0.00338045)
(0.00145221 0.166526 -0.00282451)
(0.000398125 0.200421 -0.00152612)
(-0.000151015 0.217223 -0.000661958)
(-0.000334727 0.20711 -0.000329222)
(-0.00016384 0.112805 -0.000139587)
(-6.53617e-05 -0.0748749 0.00129388)
(-0.000399075 -0.170153 0.000876212)
(-0.000664545 -0.213872 0.000245225)
(-0.000866575 -0.23034 3.31142e-05)
(-0.000974085 -0.236718 5.94451e-06)
(-0.00104112 -0.238853 9.63621e-05)
(-0.00106296 -0.238442 0.000275746)
(-0.00104188 -0.236055 0.000538784)
(-0.00097989 -0.232014 0.000887766)
(-0.000879812 -0.226534 0.00132808)
(-0.000744363 -0.219751 0.0018695)
(-0.000576556 -0.211736 0.00252596)
(-0.000381208 -0.202535 0.00331133)
(-0.000164717 -0.192185 0.00423649)
(6.53131e-05 -0.180723 0.00530553)
(0.000300481 -0.168194 0.00651127)
(0.000532317 -0.154652 0.00782911)
(0.000753696 -0.140171 0.00920928)
(0.000960172 -0.124846 0.0105723)
(0.00115312 -0.108784 0.0118106)
(0.00134313 -0.0920968 0.0128049)